VARIABLES="w (rad/s)"
"abs(F   1   1)" "angle(F   1   1)"
"abs(F   1   2)" "angle(F   1   2)"
"abs(F   1   3)" "angle(F   1   3)"
"abs(F   1   4)" "angle(F   1   4)"
"abs(F   1   5)" "angle(F   1   5)"
"abs(F   1   6)" "angle(F   1   6)"
Zone t="Diffraction force - beta =   0.000 deg",I=   300,F=POINT
  0.2000000E-01  0.1281751E-02 -0.1570796E+01  0.8498478E-10 -0.3103793E+01  0.1836141E-02 -0.3141582E+01  0.3356302E-11 -0.2931793E+01  0.1377660E-03  0.1570796E+01  0.1491517E-17 -0.1904041E+01
  0.4000000E-01  0.5595078E-02 -0.1570796E+01  0.1505477E-08  0.3134721E+01  0.7388460E-02 -0.3141549E+01  0.4088651E-10 -0.3103090E+01  0.5849108E-03  0.1570796E+01  0.1318989E-17 -0.1735945E+01
  0.6000000E-01  0.1261915E-01 -0.1570796E+01  0.1908595E-08 -0.3121751E-01  0.1648602E-01 -0.3141494E+01  0.7798107E-10 -0.3106232E+01  0.1317196E-02  0.1570796E+01  0.1318989E-16 -0.1405648E+01
  0.8000000E-01  0.2237957E-01 -0.1570796E+01  0.2773575E-09 -0.1133731E+00  0.2957824E-01 -0.3141418E+01  0.1730008E-09  0.1368670E+00  0.2339666E-02  0.1570796E+01  0.1055191E-16 -0.1735945E+01
  0.9999999E-01  0.3497153E-01 -0.1570796E+01  0.1615753E-08 -0.3049429E+01  0.4614815E-01 -0.3141320E+01  0.3581528E-09  0.6829958E-01  0.3655541E-02  0.1570796E+01  0.2030442E-16 -0.1919567E+01
  0.1200000E+00  0.5046999E-01 -0.1570796E+01  0.7622122E-08  0.3819266E-01  0.6599052E-01 -0.3141198E+01  0.1904599E-09 -0.7169022E-01  0.5268211E-02  0.1570796E+01  0.6245005E-16  0.1570796E+01
  0.1400000E+00  0.6874536E-01 -0.1570796E+01  0.2390205E-08 -0.5558293E-01  0.8980795E-01 -0.3141055E+01  0.2215251E-09  0.2499575E+00  0.7171163E-02  0.1570796E+01  0.4137961E-16  0.9944211E+00
  0.1600000E+00  0.8951600E-01 -0.1570796E+01  0.9841137E-08  0.3099808E+01  0.1184779E+00 -0.3140898E+01  0.7287587E-09 -0.3085090E+01  0.9358960E-02  0.1570796E+01  0.9047211E-16 -0.1004067E+01
  0.1800000E+00  0.1136600E+00 -0.1570796E+01  0.1665393E-08 -0.3495843E-01  0.1483803E+00 -0.3140704E+01  0.1921309E-08  0.3095423E+01  0.1185286E-01  0.1570796E+01  0.9027232E-16 -0.1532354E+01
  0.2000000E+00  0.1398825E+00 -0.1570796E+01  0.1612878E-07 -0.2064005E-01  0.1849031E+00 -0.3140507E+01  0.6972299E-09  0.3124471E+01  0.1462335E-01  0.1570796E+01  0.8069728E-16  0.2697173E+01
  0.2200000E+00  0.1696539E+00 -0.1570796E+01  0.1652520E-07 -0.3082559E+01  0.2221251E+00 -0.3140270E+01  0.1259219E-08 -0.3087486E+01  0.1769615E-01  0.1570796E+01  0.1211826E-15 -0.1983207E+01
  0.2400000E+00  0.2018494E+00 -0.1570796E+01  0.6832996E-08  0.3125620E+01  0.2644206E+00 -0.3140019E+01  0.1003020E-08 -0.2718305E+01  0.2107089E-01  0.1570796E+01  0.1649356E-15 -0.1959115E+01
  0.2600000E+00  0.2363259E+00 -0.1570796E+01  0.1157183E-07  0.3062916E+01  0.3124903E+00 -0.3139760E+01  0.3462002E-08  0.3113414E+01  0.2467673E-01  0.1570796E+01  0.3103168E-15  0.1390943E+01
  0.2800000E+00  0.2749987E+00 -0.1570796E+01  0.2645315E-07 -0.3045728E+01  0.3598752E+00 -0.3139453E+01  0.3604804E-09 -0.4004194E+00  0.2868794E-01  0.1570796E+01  0.1428806E-15  0.1063698E+01
  0.3000000E+00  0.3154966E+00 -0.1570796E+01  0.1156391E-07  0.2798553E+00  0.4133083E+00 -0.3139140E+01  0.2023680E-08 -0.1239090E+00  0.3293481E-01  0.1570796E+01  0.3071979E-15 -0.1892547E+01
  0.3200000E+00  0.3580430E+00 -0.1570796E+01  0.6546544E-07  0.3141259E+01  0.4752884E+00 -0.3138833E+01  0.9177884E-09 -0.1536054E-01  0.3743825E-01  0.1570796E+01  0.8050313E-15 -0.1588036E+01
  0.3400000E+00  0.4047894E+00 -0.1570796E+01  0.5296707E-08  0.3287009E+00  0.5326812E+00 -0.3138457E+01  0.6035030E-08  0.3079992E+01  0.4222373E-01  0.1570796E+01  0.4308824E-15  0.1831399E+01
  0.3600000E+00  0.4546214E+00 -0.1570796E+01  0.1572829E-07 -0.2761000E+01  0.5951149E+00 -0.3138067E+01  0.1540242E-08 -0.3019948E+01  0.4741242E-01  0.1570796E+01  0.8891537E-15 -0.1523956E+01
  0.3800000E+00  0.5060156E+00 -0.1570796E+01  0.1431950E-07 -0.3473818E+00  0.6643308E+00 -0.3137674E+01  0.4570087E-08  0.3054915E+01  0.5282753E-01  0.1570796E+01  0.7244418E-15  0.1279340E+01
  0.4000000E+00  0.5594428E+00 -0.1570796E+01  0.3295204E-07  0.2985737E+01  0.7423343E+00 -0.3137290E+01  0.5559900E-08 -0.3223106E-01  0.5849506E-01  0.1570796E+01  0.6661338E-15 -0.1570796E+01
  0.4200000E+00  0.6171707E+00 -0.1570796E+01  0.2695907E-07  0.1106567E-01  0.8157305E+00 -0.3136837E+01  0.8169298E-08 -0.3119269E+01  0.6443341E-01  0.1570796E+01  0.6597425E-15  0.1825979E+01
  0.4400000E+00  0.6786535E+00 -0.1570796E+01  0.9257880E-08 -0.2023900E+01  0.8915435E+00 -0.3136355E+01  0.5686631E-08  0.9884112E-01  0.7080332E-01  0.1570796E+01  0.4041273E-15  0.2863293E+01
  0.4600000E+00  0.7424759E+00 -0.1570796E+01  0.6337712E-07  0.3131031E+01  0.9732397E+00 -0.3135864E+01  0.5039430E-08  0.3123454E+01  0.7747560E-01  0.1570796E+01  0.5661049E-15  0.1768192E+01
  0.4800000E+00  0.8071980E+00 -0.1570796E+01  0.5661939E-07 -0.3005729E+01  0.1062143E+01 -0.3135375E+01  0.1142082E-08 -0.2625212E+01  0.8428008E-01  0.1570796E+01  0.1044805E-14 -0.1867342E+01
  0.5000000E+00  0.8741101E+00 -0.1570796E+01  0.5314207E-07  0.2654355E+00  0.1160064E+01 -0.3134896E+01  0.1436297E-07 -0.3124685E+01  0.9138769E-01  0.1570796E+01  0.7221786E-15  0.1609239E+01
  0.5200000E+00  0.9452475E+00 -0.1570796E+01  0.3118351E-07 -0.3055622E+01  0.1255048E+01 -0.3134358E+01  0.1508724E-07 -0.5663542E-01  0.9872206E-01  0.1570796E+01  0.9918493E-15 -0.1257895E+01
  0.5400000E+00  0.1020936E+01 -0.1570796E+01  0.2337147E-07 -0.2427135E+00  0.1348010E+01 -0.3133766E+01  0.1416672E-07 -0.3104927E+01  0.1065085E+00  0.1570796E+01  0.2620955E-14  0.1475343E+01
  0.5600000E+00  0.1099808E+01 -0.1570796E+01  0.8433317E-07 -0.1069847E-01  0.1446205E+01 -0.3133162E+01  0.5644686E-08 -0.3277629E+00  0.1147600E+00  0.1570797E+01  0.4710277E-15  0.2356194E+01
  0.5800000E+00  0.1180325E+01 -0.1570796E+01  0.7793835E-07 -0.3067026E+01  0.1550506E+01 -0.3132552E+01  0.1160577E-07  0.2833051E+00  0.1231885E+00  0.1570797E+01  0.2692720E-14  0.1715609E+01
  0.6000000E+00  0.1261572E+01 -0.1570796E+01  0.2597427E-07  0.1061031E+01  0.1662056E+01 -0.3131945E+01  0.2665152E-07 -0.2286603E-01  0.1317373E+00  0.1570797E+01  0.1633575E-14 -0.1400061E+01
  0.6199999E+00  0.1344862E+01 -0.1570796E+01  0.4535008E-07  0.3124906E+01  0.1782253E+01 -0.3131345E+01  0.2273615E-08 -0.2715164E+01  0.1405325E+00  0.1570797E+01  0.7216450E-15  0.1965587E+01
  0.6400000E+00  0.1431902E+01 -0.1570796E+01  0.2504406E-06 -0.5406423E-01  0.1911848E+01 -0.3130759E+01  0.1095272E-07  0.3021564E+01  0.1497723E+00  0.1570797E+01  0.7850462E-15  0.1712693E+01
  0.6600000E+00  0.1523108E+01 -0.1570796E+01  0.1712059E-06  0.7844726E-01  0.2027900E+01 -0.3130054E+01  0.1310810E-07  0.1829440E+00  0.1591101E+00  0.1570797E+01  0.1546362E-14 -0.1203622E+01
  0.6799999E+00  0.1618608E+01 -0.1570796E+01  0.9505682E-07  0.3121996E+01  0.2149985E+01 -0.3129341E+01  0.8155324E-08  0.2703483E+01  0.1689272E+00  0.1570797E+01  0.1295921E-14 -0.1721908E+00
  0.7000000E+00  0.1717518E+01 -0.1570796E+01  0.1100090E-06 -0.3090775E+01  0.2278695E+01 -0.3128628E+01  0.1117948E-07  0.2804457E+01  0.1792937E+00  0.1570797E+01  0.1489520E-14  0.2034444E+01
  0.7200000E+00  0.1817777E+01 -0.1570795E+01  0.9183393E-07 -0.2895730E+01  0.2414445E+01 -0.3127915E+01  0.2869470E-07  0.3067675E+01  0.1897020E+00  0.1570797E+01  0.1558272E-14 -0.1642104E+01
  0.7399999E+00  0.1920508E+01 -0.1570795E+01  0.3430906E-06 -0.5898994E-01  0.2557520E+01 -0.3127203E+01  0.6696197E-08  0.2581093E+01  0.2005662E+00  0.1570797E+01  0.1005350E-14 -0.1681454E+01
  0.7600000E+00  0.2023014E+01 -0.1570795E+01  0.1320459E-06 -0.2838313E+01  0.2693893E+01 -0.3126412E+01  0.3806566E-08  0.9912760E+00  0.2111114E+00  0.1570797E+01  0.1469736E-14  0.1380808E+01
  0.7800000E+00  0.2128835E+01 -0.1570795E+01  0.2532928E-06 -0.3119760E+01  0.2835476E+01 -0.3125613E+01  0.4984031E-09  0.1570796E+01  0.2221515E+00  0.1570798E+01  0.4441239E-14  0.1583296E+01
  0.8000000E+00  0.2238619E+01 -0.1570795E+01  0.4720111E-07 -0.6388150E+00  0.2982403E+01 -0.3124804E+01  0.1629108E-07 -0.2715206E+00  0.2336936E+00  0.1570798E+01  0.4825321E-14  0.1972667E+01
  0.8200000E+00  0.2353019E+01 -0.1570794E+01  0.2651565E-07 -0.1042801E+01  0.3135357E+01 -0.3123991E+01  0.1461397E-07 -0.3054978E+01  0.2456354E+00  0.1570798E+01  0.2212104E-14  0.1876675E+01
  0.8400000E+00  0.2471780E+01 -0.1570794E+01  0.2434634E-06  0.2830578E+01  0.3295017E+01 -0.3123176E+01  0.2832552E-07  0.6812305E-01  0.2580222E+00  0.1570799E+01  0.4965068E-15  0.2677945E+01
  0.8600000E+00  0.2593999E+01 -0.1570794E+01  0.1586868E-06 -0.3066326E+01  0.3457369E+01 -0.3122336E+01  0.2360970E-07  0.2984626E+01  0.2707450E+00  0.1570799E+01  0.1884111E-14  0.7853982E+00
  0.8800001E+00  0.2718326E+01 -0.1570793E+01  0.2306534E-06  0.2676575E+00  0.3616366E+01 -0.3121442E+01  0.3141210E-07 -0.3052181E+01  0.2836123E+00  0.1570799E+01  0.5370543E-14  0.1051650E+01
  0.9000000E+00  0.2846142E+01 -0.1570793E+01  0.7482076E-07 -0.3090805E+00  0.3780450E+01 -0.3120536E+01  0.3274022E-07  0.2950648E+01  0.2969098E+00  0.1570800E+01  0.6753223E-15 -0.1735945E+01
  0.9200000E+00  0.2976156E+01 -0.1570792E+01  0.3061792E-06  0.5382706E-01  0.3949732E+01 -0.3119618E+01  0.3579091E-08  0.1551223E+00  0.3105397E+00  0.1570800E+01  0.7447602E-15 -0.1107149E+01
  0.9399999E+00  0.3105517E+01 -0.1570792E+01  0.1017740E-06 -0.2920753E+01  0.4124863E+01 -0.3118700E+01  0.4685851E-07 -0.9844807E-01  0.3241214E+00  0.1570800E+01  0.2001483E-14 -0.3392926E+00
  0.9600000E+00  0.3237177E+01 -0.1570791E+01  0.5229222E-06 -0.7235361E-02  0.4306329E+01 -0.3117775E+01  0.3014936E-08 -0.3099347E+01  0.3378964E+00  0.1570801E+01  0.1601186E-14 -0.5880026E+00
  0.9800000E+00  0.3370815E+01 -0.1570790E+01  0.6002758E-06 -0.3121131E+01  0.4495324E+01 -0.3116858E+01  0.1169258E-08 -0.1477320E+01  0.3519811E+00  0.1570802E+01  0.1110223E-14 -0.6435011E+00
  0.9999999E+00  0.3506051E+01 -0.1570790E+01  0.4766048E-06 -0.1894555E+00  0.4679235E+01 -0.3115875E+01  0.1657999E-07 -0.2585180E+01  0.3660828E+00  0.1570803E+01  0.5950836E-14  0.1325818E+01
  0.1020000E+01  0.3650494E+01 -0.1570789E+01  0.3465236E-06  0.3121266E+01  0.4864570E+01 -0.3114863E+01  0.2376169E-07  0.5512638E+00  0.3811115E+00  0.1570803E+01  0.4148135E-14 -0.1299850E+01
  0.1040000E+01  0.3797940E+01 -0.1570788E+01  0.1687983E-06  0.3065310E+01  0.5054686E+01 -0.3113840E+01  0.5408559E-07  0.3099877E+01  0.3965346E+00  0.1570804E+01  0.3278449E-14  0.1076855E+01
  0.1060000E+01  0.3949460E+01 -0.1570787E+01  0.4985662E-06  0.2228478E+00  0.5249954E+01 -0.3112808E+01  0.4229922E-07  0.7549880E-01  0.4124095E+00  0.1570805E+01  0.1558272E-14 -0.1642104E+01
  0.1080000E+01  0.4103148E+01 -0.1570786E+01  0.2800004E-06 -0.8742268E-01  0.5451214E+01 -0.3111775E+01  0.4003449E-07  0.3379871E+00  0.4285231E+00  0.1570806E+01  0.4680087E-14  0.2752276E+01
  0.1100000E+01  0.4257697E+01 -0.1570784E+01  0.4326794E-06 -0.7405829E-01  0.5658333E+01 -0.3110738E+01  0.2834257E-07 -0.3058707E+01  0.4446249E+00  0.1570807E+01  0.9792645E-14 -0.1638873E+01
  0.1120000E+01  0.4416492E+01 -0.1570783E+01  0.2518142E-06  0.6499980E-01  0.5872437E+01 -0.3109704E+01  0.5506764E-07  0.6982011E-01  0.4612227E+00  0.1570808E+01  0.5555554E-14  0.1530818E+01
  0.1140000E+01  0.4577698E+01 -0.1570782E+01  0.1376334E-06  0.3051813E+01  0.6091599E+01 -0.3108660E+01  0.1047264E-06  0.7409429E-01  0.4780518E+00  0.1570809E+01  0.4746771E-14 -0.1759018E+01
  0.1160000E+01  0.4737971E+01 -0.1570780E+01  0.1698572E-06  0.2776112E-01  0.6301030E+01 -0.3107529E+01  0.1398328E-07  0.1266406E+01  0.4946341E+00  0.1570811E+01  0.3877842E-14  0.1983207E+01
  0.1180000E+01  0.4901992E+01 -0.1570778E+01  0.1617224E-06  0.1799538E+01  0.6515760E+01 -0.3106393E+01  0.8683509E-07 -0.9562497E-01  0.5117532E+00  0.1570813E+01  0.9370703E-14 -0.1810028E+01
  0.1200000E+01  0.5068479E+01 -0.1570776E+01  0.1127498E-05  0.3017788E+01  0.6734972E+01 -0.3105245E+01  0.7397195E-07 -0.1111502E-01  0.5291815E+00  0.1570814E+01  0.3084742E-14 -0.1042722E+01
  0.1220000E+01  0.5236871E+01 -0.1570774E+01  0.2305548E-06  0.3370799E+00  0.6959211E+01 -0.3104091E+01  0.4617255E-07  0.3013602E+01  0.5468745E+00  0.1570816E+01  0.5674098E-14 -0.2104505E+01
  0.1240000E+01  0.5406532E+01 -0.1570772E+01  0.2502545E-06  0.6873823E+00  0.7189469E+01 -0.3102936E+01  0.8416104E-07  0.2278680E+00  0.5648051E+00  0.1570818E+01  0.8484312E-14  0.1675673E+01
  0.1260000E+01  0.5576847E+01 -0.1570770E+01  0.3639757E-06  0.1826857E+00  0.7425440E+01 -0.3101776E+01  0.1093312E-06 -0.6954500E-02  0.5827209E+00  0.1570820E+01  0.2979041E-14 -0.2034444E+01
  0.1280000E+01  0.5756342E+01 -0.1570767E+01  0.2502003E-06  0.2186935E+01  0.7667758E+01 -0.3100622E+01  0.1019491E-07  0.2245521E+00  0.6014928E+00  0.1570823E+01  0.1404333E-14  0.1249046E+01
  0.1300000E+01  0.5937538E+01 -0.1570764E+01  0.5110797E-06 -0.2897968E+01  0.7917497E+01 -0.3099472E+01  0.4931589E-07  0.3035758E+01  0.6205861E+00  0.1570825E+01  0.1616509E-14 -0.2863293E+01
  0.1320000E+01  0.6122185E+01 -0.1570761E+01  0.5743998E-06 -0.3439919E+00  0.8167486E+01 -0.3098289E+01  0.1399864E-06 -0.5730911E-01  0.6399278E+00  0.1570828E+01  0.6679817E-14  0.1196463E+01
  0.1340000E+01  0.6310381E+01 -0.1570758E+01  0.1515212E-06  0.2463972E+01  0.8408811E+01 -0.3097026E+01  0.5728042E-07  0.3129652E+01  0.6593807E+00  0.1570831E+01  0.6556899E-14 -0.2064738E+01
  0.1360000E+01  0.6504228E+01 -0.1570754E+01  0.3981412E-06  0.3231375E+00  0.8655842E+01 -0.3095762E+01  0.1365540E-06 -0.3067248E+01  0.6795668E+00  0.1570834E+01  0.2401780E-14 -0.5880026E+00
  0.1380000E+01  0.6702338E+01 -0.1570751E+01  0.4090506E-06 -0.2942774E+01  0.8906911E+01 -0.3094487E+01  0.6136298E-07 -0.2922745E+00  0.7001969E+00  0.1570837E+01  0.4076197E-14 -0.1058407E+01
  0.1400000E+01  0.6904301E+01 -0.1570747E+01  0.1075819E-05 -0.3018681E+01  0.9162411E+01 -0.3093204E+01  0.5175090E-07  0.2728393E+01  0.7212564E+00  0.1570841E+01  0.9155133E-14 -0.1325818E+01
  0.1420000E+01  0.7109761E+01 -0.1570742E+01  0.1108652E-06  0.1640682E+01  0.9423882E+01 -0.3091923E+01  0.9158253E-07  0.3113385E+01  0.7427769E+00  0.1570845E+01  0.5443490E-14 -0.1776192E+01
  0.1440000E+01  0.7315557E+01 -0.1570738E+01  0.8908182E-06  0.3618680E+00  0.9690958E+01 -0.3090639E+01  0.1807418E-06 -0.3117920E+01  0.7643045E+00  0.1570849E+01  0.4884981E-14 -0.1570796E+01
  0.1460000E+01  0.7519285E+01 -0.1570732E+01  0.1149951E-06 -0.2704660E+01  0.9963702E+01 -0.3089355E+01  0.6882390E-07  0.3990199E+00  0.7856110E+00  0.1570854E+01  0.8576787E-14  0.1941688E+01
  0.1480000E+01  0.7725660E+01 -0.1570727E+01  0.1215915E-05 -0.3058968E+01  0.1024266E+02 -0.3088076E+01  0.1125118E-07 -0.2123637E+01  0.8072254E+00  0.1570858E+01  0.6221213E-14  0.6078020E+00
  0.1500000E+01  0.7931985E+01 -0.1570721E+01  0.6954604E-06  0.2097722E+00  0.1052886E+02 -0.3086804E+01  0.1821301E-06 -0.1706918E+00  0.8290023E+00  0.1570864E+01  0.4440892E-14 -0.3141592E+01
  0.1520000E+01  0.8138823E+01 -0.1570715E+01  0.5893841E-06 -0.2947800E+01  0.1081800E+02 -0.3085518E+01  0.2093133E-07 -0.2329203E-01  0.8508052E+00  0.1570869E+01  0.5551115E-14 -0.1287002E+01
  0.1540000E+01  0.8345030E+01 -0.1570709E+01  0.2898352E-06  0.1111819E+01  0.1109363E+02 -0.3084129E+01  0.2179544E-06 -0.7002787E-01  0.8722986E+00  0.1570875E+01  0.3172985E-13  0.1458593E+01
  0.1560000E+01  0.8553580E+01 -0.1570702E+01  0.1951812E-05  0.3069180E+01  0.1137365E+02 -0.3082733E+01  0.3486656E-07  0.5424953E+00  0.8941417E+00  0.1570881E+01  0.2220446E-14 -0.9272952E+00
  0.1580000E+01  0.8765429E+01 -0.1570694E+01  0.1924028E-06 -0.1684794E+01  0.1165848E+02 -0.3081333E+01  0.1412982E-06  0.3016446E+01  0.9164310E+00  0.1570888E+01  0.9057678E-14 -0.1373401E+01
  0.1600000E+01  0.8986674E+01 -0.1570686E+01  0.7944842E-06 -0.2253601E+00  0.1194762E+02 -0.3079928E+01  0.2673119E-07  0.2655302E+01  0.9397276E+00  0.1570895E+01  0.1427317E-13 -0.1664273E+01
  0.1620000E+01  0.9214255E+01 -0.1570678E+01  0.4103576E-06  0.2679975E+01  0.1224119E+02 -0.3078517E+01  0.3310090E-07  0.6209905E+00  0.9636121E+00  0.1570903E+01  0.2064418E-13  0.1899349E+01
  0.1640000E+01  0.9447603E+01 -0.1570669E+01  0.7645702E-06 -0.1414664E+00  0.1254068E+02 -0.3077109E+01  0.1556645E-06 -0.3117191E+01  0.9882516E+00  0.1570911E+01  0.1238683E-13 -0.1824470E+01
  0.1660000E+01  0.9683013E+01 -0.1570660E+01  0.7204995E-06  0.2424706E+00  0.1284528E+02 -0.3075700E+01  0.5316165E-07 -0.1889301E+01  0.1013032E+01  0.1570919E+01  0.2043293E-13  0.1549061E+01
  0.1680000E+01  0.9920638E+01 -0.1570650E+01  0.5242856E-06  0.2637319E+01  0.1315541E+02 -0.3074293E+01  0.7758571E-07  0.5357378E-01  0.1037889E+01  0.1570928E+01  0.1689875E-13 -0.1518213E+01
  0.1700000E+01  0.1016300E+02 -0.1570639E+01  0.7331344E-06  0.2845756E+01  0.1347139E+02 -0.3072891E+01  0.9312792E-07  0.7348825E+00  0.1063193E+01  0.1570938E+01  0.1065814E-13 -0.1570796E+01
  0.1720000E+01  0.1040926E+02 -0.1570628E+01  0.1032573E-05 -0.2934932E+01  0.1379414E+02 -0.3071497E+01  0.1423565E-06 -0.3076585E+01  0.1089051E+01  0.1570948E+01  0.4720733E-14 -0.8519663E+00
  0.1740000E+01  0.1065714E+02 -0.1570616E+01  0.2750060E-06  0.4729241E+00  0.1412352E+02 -0.3070112E+01  0.9895957E-07 -0.3618197E-01  0.1115089E+01  0.1570959E+01  0.1040534E-13  0.2265535E+01
  0.1760000E+01  0.1090736E+02 -0.1570603E+01  0.8561069E-06  0.2371952E+00  0.1444777E+02 -0.3068674E+01  0.8576907E-07 -0.2856441E+01  0.1141219E+01  0.1570970E+01  0.3662053E-14  0.2449787E+00
  0.1780000E+01  0.1115928E+02 -0.1570590E+01  0.1145079E-05  0.9795902E-01  0.1476168E+02 -0.3067152E+01  0.6844427E-07 -0.2964630E+01  0.1167267E+01  0.1570982E+01  0.7993606E-14 -0.1570796E+01
  0.1800000E+01  0.1141582E+02 -0.1570576E+01  0.4922715E-06  0.1702426E+01  0.1508019E+02 -0.3065629E+01  0.8255294E-07 -0.1710151E+01  0.1193880E+01  0.1570994E+01  0.8484312E-14 -0.2319174E+01
  0.1820000E+01  0.1167459E+02 -0.1570561E+01  0.6326745E-06  0.5615640E+00  0.1540339E+02 -0.3064105E+01  0.1648875E-06  0.2984730E+00  0.1220883E+01  0.1571008E+01  0.1013652E-13  0.1067953E+01
  0.1840000E+01  0.1193313E+02 -0.1570546E+01  0.1267424E-05 -0.2891356E+01  0.1573028E+02 -0.3062576E+01  0.2918735E-06  0.3091266E+01  0.1247991E+01  0.1571022E+01  0.1233897E-13  0.1042722E+01
  0.1860000E+01  0.1219486E+02 -0.1570529E+01  0.2806237E-05  0.1719278E+00  0.1606120E+02 -0.3061042E+01  0.1800608E-06  0.2961696E+01  0.1275503E+01  0.1571037E+01  0.1509903E-13  0.1080839E+01
  0.1880000E+01  0.1245791E+02 -0.1570512E+01  0.5217642E-06  0.3890415E+00  0.1639674E+02 -0.3059509E+01  0.3225088E-07  0.1692017E+01  0.1303205E+01  0.1571052E+01  0.4803559E-14  0.5880026E+00
  0.1900000E+01  0.1272281E+02 -0.1570494E+01  0.9426599E-06 -0.4186758E+00  0.1673795E+02 -0.3057981E+01  0.9866235E-07 -0.1055016E+01  0.1331227E+01  0.1571069E+01  0.3031539E-13 -0.1015303E+01
  0.1920000E+01  0.1298612E+02 -0.1570475E+01  0.2014085E-05 -0.3024801E+01  0.1708404E+02 -0.3056455E+01  0.5545220E-07  0.2468696E+01  0.1359066E+01  0.1571086E+01  0.2808667E-14 -0.1892547E+01
  0.1940000E+01  0.1324868E+02 -0.1570454E+01  0.8756869E-06  0.3058275E+01  0.1743534E+02 -0.3054935E+01  0.3971606E-06  0.1698350E+00  0.1386736E+01  0.1571104E+01  0.1080516E-13  0.1405648E+01
  0.1960000E+01  0.1351318E+02 -0.1570433E+01  0.1907286E-06  0.5354995E+00  0.1779200E+02 -0.3053419E+01  0.2624418E-06 -0.1689772E+00  0.1414605E+01  0.1571124E+01  0.4803559E-14  0.5880026E+00
  0.1980000E+01  0.1377905E+02 -0.1570410E+01  0.1907409E-05 -0.4371139E+00  0.1815493E+02 -0.3051914E+01  0.3398413E-06 -0.3061047E+01  0.1442800E+01  0.1571144E+01  0.6169484E-14 -0.2098871E+01
  0.2000000E+01  0.1405050E+02 -0.1570387E+01  0.1783854E-05  0.1010648E+00  0.1852441E+02 -0.3050420E+01  0.1228651E-06  0.3106409E+01  0.1471623E+01  0.1571165E+01  0.3291058E-13 -0.1624798E+01
  0.2020000E+01  0.1433036E+02 -0.1570362E+01  0.9108109E-06  0.3110401E+01  0.1890039E+02 -0.3048939E+01  0.4803555E-06 -0.3005822E+01  0.1501262E+01  0.1571187E+01  0.2501133E-13  0.1677532E+01
  0.2040000E+01  0.1461353E+02 -0.1570336E+01  0.1026907E-05 -0.7064375E+00  0.1925545E+02 -0.3047322E+01  0.2456325E-06 -0.3115523E+01  0.1530821E+01  0.1571211E+01  0.2324585E-13 -0.7583777E+00
  0.2060000E+01  0.1490197E+02 -0.1570309E+01  0.1574286E-05  0.2965126E+01  0.1960972E+02 -0.3045681E+01  0.2088564E-06 -0.2852765E+01  0.1560777E+01  0.1571235E+01  0.7588600E-14  0.2782822E+01
  0.2080000E+01  0.1519701E+02 -0.1570281E+01  0.1032904E-05  0.1893498E+00  0.1996920E+02 -0.3044044E+01  0.5371439E-06 -0.2857049E+01  0.1591600E+01  0.1571261E+01  0.1098616E-13 -0.2896614E+01
  0.2100000E+01  0.1549710E+02 -0.1570251E+01  0.1132902E-05 -0.4487576E+00  0.2033254E+02 -0.3042408E+01  0.3396374E-06  0.3041122E+01  0.1623011E+01  0.1571287E+01  0.2398493E-13 -0.1589313E+01
  0.2120000E+01  0.1579943E+02 -0.1570220E+01  0.1264511E-05  0.2271334E+01  0.2069937E+02 -0.3040768E+01  0.3190407E-06 -0.2584752E+00  0.1654690E+01  0.1571315E+01  0.1551137E-13  0.1801887E+01
  0.2140000E+01  0.1610696E+02 -0.1570188E+01  0.3846966E-06 -0.1276035E+01  0.2107000E+02 -0.3039127E+01  0.2010965E-06  0.3387307E+00  0.1687028E+01  0.1571344E+01  0.5687117E-14 -0.2245537E+01
  0.2160000E+01  0.1641700E+02 -0.1570154E+01  0.6748176E-06 -0.1241838E+00  0.2144400E+02 -0.3037484E+01  0.1378602E-06  0.3314642E+00  0.1719531E+01  0.1571375E+01  0.2241661E-13 -0.2158799E+01
  0.2180000E+01  0.1673256E+02 -0.1570119E+01  0.2953968E-06  0.5006679E+00  0.2182346E+02 -0.3035849E+01  0.2083702E-06  0.4540905E+00  0.1752871E+01  0.1571407E+01  0.7160723E-14  0.1446441E+01
  0.2200000E+01  0.1704852E+02 -0.1570082E+01  0.8509438E-06  0.1817633E+01  0.2220705E+02 -0.3034218E+01  0.3442848E-06  0.9510239E-02  0.1786179E+01  0.1571440E+01  0.4263256E-13 -0.1570796E+01
  0.2220000E+01  0.1736480E+02 -0.1570043E+01  0.7039499E-06 -0.1216826E+01  0.2259506E+02 -0.3032590E+01  0.2727427E-06 -0.2859130E+01  0.1819485E+01  0.1571475E+01  0.1696862E-13 -0.1465919E+01
  0.2240000E+01  0.1768189E+02 -0.1570003E+01  0.3191469E-06 -0.2809051E+00  0.2298792E+02 -0.3030971E+01  0.3674692E-06 -0.1737684E+00  0.1852754E+01  0.1571511E+01  0.3933137E-13  0.2014245E+01
  0.2260000E+01  0.1800266E+02 -0.1569960E+01  0.4870437E-06  0.9213674E+00  0.2338575E+02 -0.3029360E+01  0.3016118E-06 -0.3109599E+01  0.1886371E+01  0.1571549E+01  0.6466036E-14 -0.1849096E+01
  0.2280000E+01  0.1832643E+02 -0.1569916E+01  0.1361661E-05 -0.1285968E+00  0.2378909E+02 -0.3027760E+01  0.1401794E-06 -0.3011778E+01  0.1920393E+01  0.1571589E+01  0.5188817E-13 -0.1690905E+01
  0.2300000E+01  0.1865054E+02 -0.1569871E+01  0.1565611E-05  0.2926989E+01  0.2419855E+02 -0.3026175E+01  0.1691079E-06 -0.6881937E+00  0.1954679E+01  0.1571630E+01  0.3972055E-14 -0.4636476E+00
  0.2320000E+01  0.1897519E+02 -0.1569823E+01  0.3482108E-05 -0.1148587E+00  0.2461353E+02 -0.3024602E+01  0.6678479E-07 -0.2027525E+01  0.1989036E+01  0.1571674E+01  0.1065814E-13  0.1570796E+01
  0.2340000E+01  0.1930143E+02 -0.1569773E+01  0.1060990E-05 -0.8181453E+00  0.2502585E+02 -0.3022998E+01  0.1619093E-06  0.1464903E+01  0.2023464E+01  0.1571718E+01  0.3376247E-13  0.1597106E+01
  0.2360000E+01  0.1962691E+02 -0.1569721E+01  0.1114355E-05  0.9445961E+00  0.2541715E+02 -0.3021265E+01  0.1645719E-06  0.5844711E+00  0.2057434E+01  0.1571766E+01  0.8747543E-14 -0.4182243E+00
  0.2380000E+01  0.1995496E+02 -0.1569666E+01  0.2270965E-05 -0.2458301E+01  0.2581008E+02 -0.3019526E+01  0.2010272E-06  0.2422272E+01  0.2091578E+01  0.1571815E+01  0.1551137E-13  0.1158386E+01
  0.2400000E+01  0.2028673E+02 -0.1569610E+01  0.1901862E-06  0.2338015E+01  0.2620828E+02 -0.3017797E+01  0.4344012E-07  0.1542654E+01  0.2126395E+01  0.1571866E+01  0.7105427E-14  0.1570796E+01
  0.2420000E+01  0.2062086E+02 -0.1569551E+01  0.2954796E-05  0.2862016E+01  0.2660991E+02 -0.3016071E+01  0.2903857E-06 -0.1399694E+00  0.2161592E+01  0.1571919E+01  0.2488485E-13 -0.1535097E+01
  0.2440000E+01  0.2095444E+02 -0.1569489E+01  0.2540130E-05  0.2787778E+01  0.2701413E+02 -0.3014343E+01  0.7083958E-07 -0.2110933E+00  0.2196755E+01  0.1571974E+01  0.4806843E-13 -0.1090621E+01
  0.2460000E+01  0.2129023E+02 -0.1569426E+01  0.6613571E-06 -0.8404410E+00  0.2742178E+02 -0.3012617E+01  0.1027373E-06  0.1574762E+01  0.2232388E+01  0.1572031E+01  0.9057678E-14  0.1973956E+00
  0.2480000E+01  0.2162779E+02 -0.1569359E+01  0.6317006E-06 -0.2950992E+01  0.2783218E+02 -0.3010891E+01  0.2125129E-06 -0.3456587E+00  0.2268217E+01  0.1572091E+01  0.1854571E-13  0.2914568E+00
  0.2500000E+01  0.2196563E+02 -0.1569290E+01  0.6596271E-06  0.2609224E+01  0.2824609E+02 -0.3009170E+01  0.9057113E-07 -0.2932160E+01  0.2304090E+01  0.1572153E+01  0.4322063E-13 -0.1405648E+01
  0.2520000E+01  0.2231734E+02 -0.1569219E+01  0.1977114E-05 -0.9457144E+00  0.2866505E+02 -0.3007459E+01  0.6615593E-07 -0.2611975E+00  0.2341593E+01  0.1572217E+01  0.2079172E-13 -0.1919567E+01
  0.2540000E+01  0.2267313E+02 -0.1569145E+01  0.3856591E-05  0.2491765E+01  0.2908771E+02 -0.3005753E+01  0.3198733E-06 -0.2625268E+01  0.2379388E+01  0.1572284E+01  0.9565974E-14  0.1190290E+01
  0.2560000E+01  0.2303279E+02 -0.1569069E+01  0.5959868E-06  0.2101233E+01  0.2951429E+02 -0.3004055E+01  0.1457976E-06 -0.5301148E+00  0.2417491E+01  0.1572352E+01  0.2276580E-13  0.1929567E+01
  0.2580000E+01  0.2339503E+02 -0.1568989E+01  0.4478072E-06 -0.6203099E+00  0.2994463E+02 -0.3002365E+01  0.2575794E-06 -0.1535988E+01  0.2455694E+01  0.1572424E+01  0.2543356E-13 -0.1359703E+01
  0.2600000E+01  0.2376274E+02 -0.1568907E+01  0.2481774E-05 -0.1164072E+00  0.3037894E+02 -0.3000685E+01  0.1533241E-06 -0.1081085E+01  0.2494429E+01  0.1572499E+01  0.7944109E-14 -0.1107149E+01
  0.2620000E+01  0.2413613E+02 -0.1568822E+01  0.1883869E-05 -0.2966183E+01  0.3081753E+02 -0.2999015E+01  0.9667743E-07 -0.2443154E+01  0.2533705E+01  0.1572575E+01  0.1831027E-13  0.8884798E+00
  0.2640000E+01  0.2451347E+02 -0.1568734E+01  0.2245841E-05 -0.2212680E+01  0.3126161E+02 -0.2997360E+01  0.3444448E-06  0.6803492E+00  0.2573648E+01  0.1572655E+01  0.2717304E-13  0.1373401E+01
  0.2660000E+01  0.2489236E+02 -0.1568642E+01  0.4288524E-05  0.2914220E+01  0.3171083E+02 -0.2995722E+01  0.5860842E-07  0.2636182E+01  0.2613790E+01  0.1572737E+01  0.4337549E-13  0.1385448E+01
  0.2680000E+01  0.2527496E+02 -0.1568547E+01  0.1247162E-05  0.2861652E+01  0.3216502E+02 -0.2994100E+01  0.1545095E-06  0.2073540E+01  0.2654312E+01  0.1572823E+01  0.1811536E-13 -0.2944197E+01
  0.2700000E+01  0.2566052E+02 -0.1568449E+01  0.4390862E-05 -0.2726222E+01  0.3261730E+02 -0.2992456E+01  0.1683853E-06  0.1859637E+01  0.2695038E+01  0.1572911E+01  0.1913195E-13  0.1190290E+01
  0.2720000E+01  0.2604661E+02 -0.1568347E+01  0.1525273E-05 -0.8129261E+00  0.3304308E+02 -0.2990661E+01  0.3653360E-06  0.1331112E+01  0.2735336E+01  0.1573003E+01  0.3202373E-13  0.5880026E+00
  0.2740000E+01  0.2643697E+02 -0.1568242E+01  0.1918506E-05  0.6523362E+00  0.3346941E+02 -0.2988859E+01  0.2984440E-06 -0.3034317E+00  0.2775976E+01  0.1573098E+01  0.1271678E-13 -0.1781890E+01
  0.2760000E+01  0.2683213E+02 -0.1568134E+01  0.3040906E-05  0.2914071E+01  0.3389799E+02 -0.2987060E+01  0.2023011E-06 -0.1046118E+01  0.2817148E+01  0.1573197E+01  0.1776357E-13  0.0000000E+00
  0.2780000E+01  0.2723276E+02 -0.1568022E+01  0.3022467E-05  0.2492576E+01  0.3433141E+02 -0.2985275E+01  0.1271840E-06  0.1816275E+01  0.2859226E+01  0.1573298E+01  0.8053090E-13  0.1449177E+01
  0.2800000E+01  0.2763628E+02 -0.1567906E+01  0.3333708E-05  0.6231479E+00  0.3476667E+02 -0.2983490E+01  0.2519314E-06  0.5643547E+00  0.2901608E+01  0.1573402E+01  0.2488485E-13  0.1535097E+01
  0.2820000E+01  0.2803965E+02 -0.1567786E+01  0.2572898E-05 -0.2879801E+01  0.3520400E+02 -0.2981708E+01  0.3055044E-06 -0.2587416E+01  0.2943988E+01  0.1573511E+01  0.4094300E-13 -0.1635921E+01
  0.2840000E+01  0.2844806E+02 -0.1567662E+01  0.4407549E-05  0.5930488E-01  0.3564426E+02 -0.2979930E+01  0.2322955E-06  0.1044129E+01  0.2987093E+01  0.1573623E+01  0.3957131E-13  0.8012698E+00
  0.2860000E+01  0.2886034E+02 -0.1567534E+01  0.1189873E-05 -0.2347201E+01  0.3608654E+02 -0.2978155E+01  0.1731732E-06 -0.2996891E+01  0.3030603E+01  0.1573738E+01  0.1620773E-13  0.1735945E+01
  0.2880000E+01  0.2927153E+02 -0.1567401E+01  0.1747217E-05  0.5171296E+00  0.3653101E+02 -0.2976385E+01  0.2945330E-06 -0.3853736E-02  0.3073888E+01  0.1573858E+01  0.5617334E-14  0.1249046E+01
  0.2900000E+01  0.2968834E+02 -0.1567265E+01  0.1989812E-05 -0.2564040E+01  0.3697992E+02 -0.2974628E+01  0.2424516E-06  0.1041823E+01  0.3118190E+01  0.1573981E+01  0.3895855E-13  0.1993650E+01
  0.2920000E+01  0.3010593E+02 -0.1567124E+01  0.2816790E-05  0.4639803E+00  0.3743166E+02 -0.2972879E+01  0.4715325E-06  0.3437298E+00  0.3162569E+01  0.1574108E+01  0.1423858E-13 -0.1508378E+01
  0.2940000E+01  0.3052232E+02 -0.1566977E+01  0.3297979E-05  0.3746856E+00  0.3788618E+02 -0.2971140E+01  0.3888240E-06 -0.2940997E+01  0.3206769E+01  0.1574240E+01  0.2670450E-13  0.1637365E+01
  0.2960000E+01  0.3093751E+02 -0.1566826E+01  0.5074864E-06 -0.2941813E+00  0.3834332E+02 -0.2969409E+01  0.8914340E-06 -0.1224760E+00  0.3250804E+01  0.1574377E+01  0.8343679E-13 -0.1367138E+01
  0.2980000E+01  0.3135336E+02 -0.1566670E+01  0.3286314E-05  0.1669436E+01  0.3880352E+02 -0.2967689E+01  0.1030860E-06 -0.1812557E+01  0.3294777E+01  0.1574517E+01  0.2003822E-13  0.1794273E+01
  0.3000000E+01  0.3177168E+02 -0.1566509E+01  0.6162996E-05 -0.1295657E+00  0.3926711E+02 -0.2965982E+01  0.2289328E-06  0.1260745E+01  0.3338994E+01  0.1574663E+01  0.4782987E-13 -0.2878598E+01
  0.3020000E+01  0.3219238E+02 -0.1566343E+01  0.2710825E-05  0.2620913E+01  0.3973400E+02 -0.2964289E+01  0.1155030E-05 -0.3136452E+01  0.3383467E+01  0.1574813E+01  0.4662725E-13  0.2275290E+01