VARIABLES="w (rad/s)"
"abs(F   1   1)" "angle(F   1   1)"
"abs(F   1   2)" "angle(F   1   2)"
"abs(F   1   3)" "angle(F   1   3)"
"abs(F   1   4)" "angle(F   1   4)"
"abs(F   1   5)" "angle(F   1   5)"
"abs(F   1   6)" "angle(F   1   6)"
Zone t="Diffraction force - beta =   0.000 deg",I=   300,F=POINT
  0.2000000E-01  0.3693602E-02 -0.1570731E+01  0.3883251E-04  0.3141593E+01  0.4929193E+03 -0.3953261E-10  0.4756261E-05 -0.5359413E-07  0.3493456E-03  0.1569602E+01  0.5400130E-12 -0.3141589E+01
  0.4000000E-01  0.1524241E-01 -0.1570530E+01  0.8312018E-04 -0.3141592E+01  0.4929064E+03 -0.6528414E-09  0.1979019E-05 -0.1491800E-05  0.1431223E-02  0.1571858E+01  0.1421083E-12 -0.3967292E-04
  0.6000000E-01  0.3432539E-01 -0.1570741E+01  0.5149650E-04 -0.3141592E+01  0.4928847E+03 -0.3298396E-08  0.1701348E-04  0.3141593E+01  0.3221381E-02  0.1571564E+01  0.3694800E-12 -0.3141497E+01
  0.8000000E-01  0.6096780E-01 -0.1570792E+01  0.4850300E-04 -0.3141593E+01  0.4928551E+03 -0.1048440E-07  0.6110578E-05  0.3704706E-05  0.5724825E-02  0.1570713E+01  0.1989503E-12 -0.1743876E-03
  0.9999999E-01  0.9526427E-01 -0.1570619E+01  0.9222210E-05 -0.2115408E-04  0.4928172E+03 -0.2553433E-07  0.9244460E-06  0.3141518E+01  0.8944760E-02  0.1570560E+01  0.3410536E-12 -0.3407865E-03
  0.1200000E+00  0.1372892E+00 -0.1570925E+01  0.9536760E-04  0.3776544E-05  0.4927702E+03 -0.5285895E-07  0.6936301E-05 -0.3141589E+01  0.1288453E-01  0.1570759E+01  0.1989520E-12  0.3141418E+01
  0.1400000E+00  0.1869123E+00 -0.1570795E+01  0.1912812E-03 -0.1901879E-07  0.4927157E+03 -0.9797990E-07  0.8314131E-05  0.9489708E-05  0.1753751E-01  0.1570811E+01  0.5400350E-12 -0.1284896E-04
  0.1600000E+00  0.2438507E+00 -0.1570801E+01  0.1414144E-03  0.3141577E+01  0.4926508E+03 -0.1670529E-06  0.5634705E-05  0.7666889E-05  0.2289826E-01  0.1570814E+01  0.1421572E-12 -0.4881129E-04
  0.1800000E+00  0.3089817E+00 -0.1570815E+01  0.1885164E-04 -0.6291132E-04  0.4925795E+03 -0.2677148E-06  0.4052241E-05  0.3141583E+01  0.2898795E-01  0.1570714E+01  0.7673897E-12 -0.3707304E-03
  0.2000000E+00  0.3810092E+00 -0.1570835E+01  0.8420023E-04 -0.1423647E-04  0.4924972E+03 -0.4076126E-06  0.6586793E-06  0.3193076E-04  0.3577694E-01  0.1570800E+01  0.1420358E-12 -0.1416741E-02
  0.2200000E+00  0.4614024E+00 -0.1570773E+01  0.2799023E-04 -0.3379175E-05  0.4924093E+03 -0.5966368E-06  0.3583883E-04 -0.4691651E-05  0.4329086E-01  0.1570827E+01  0.1420603E-12  0.1953790E-02
  0.2400000E+00  0.5490345E+00 -0.1570773E+01  0.1283145E-03 -0.7995292E-05  0.4923115E+03 -0.8452562E-06  0.1242755E-04 -0.3141565E+01  0.5152928E-01  0.1570791E+01  0.3411229E-12  0.3141145E+01
  0.2600000E+00  0.6437613E+00 -0.1570827E+01  0.8622966E-04 -0.3141582E+01  0.4922030E+03 -0.1163518E-05  0.1804930E-04  0.2324205E-04  0.6042115E-01  0.1570798E+01  0.1137425E-12  0.1220106E-02
  0.2800000E+00  0.7474960E+00 -0.1570792E+01  0.5628566E-04 -0.3141579E+01  0.4920911E+03 -0.1564784E-05  0.1070495E-04  0.1822396E-04  0.7014069E-01  0.1570798E+01  0.5969254E-12 -0.6277170E-03
  0.3000000E+00  0.8578658E+00 -0.1570814E+01  0.9915599E-04  0.4666897E-04  0.4919679E+03 -0.2060590E-05  0.1014039E-04 -0.1363292E-04  0.8051799E-01  0.1570797E+01  0.8516859E-13 -0.3747742E-02
  0.3200000E+00  0.9750919E+00 -0.1570793E+01  0.2263646E-04  0.6267897E-04  0.4918309E+03 -0.2666776E-05  0.1958384E-04  0.1648658E-05  0.9157391E-01  0.1570771E+01  0.5686982E-13 -0.3120605E+01
  0.3400000E+00  0.1101324E+01 -0.1570795E+01  0.1999115E-03 -0.7315569E-05  0.4916942E+03 -0.3397024E-05  0.1386304E-05  0.5199239E-03  0.1033335E+00  0.1570795E+01  0.2841065E-12  0.1856192E-02
  0.3600000E+00  0.1235444E+01 -0.1570785E+01  0.6071508E-04 -0.9934560E-04  0.4915469E+03 -0.4268540E-05  0.1638163E-04 -0.3141567E+01  0.1159182E+00  0.1570795E+01  0.1704985E-12 -0.3130848E+01
  0.3800000E+00  0.1375927E+01 -0.1570809E+01  0.3443802E-04 -0.3141329E+01  0.4913887E+03 -0.5297670E-05  0.3267908E-06  0.3140282E+01  0.1291506E+00  0.1570800E+01  0.3124341E-12  0.3136884E+01
  0.4000000E+00  0.1523242E+01 -0.1570786E+01  0.5870038E-04  0.1054820E-03  0.4912173E+03 -0.6502246E-05  0.4991920E-05 -0.3141529E+01  0.1430567E+00  0.1570792E+01  0.5684363E-12 -0.3138858E+01
  0.4200000E+00  0.1679652E+01 -0.1570802E+01  0.1559122E-04  0.4951370E-03  0.4910452E+03 -0.7900107E-05  0.2872686E-04 -0.5967946E-05  0.1576546E+00  0.1570793E+01  0.5702617E-13 -0.3117741E+01
  0.4400000E+00  0.1844610E+01 -0.1570799E+01  0.1465868E-03 -0.3141495E+01  0.4908656E+03 -0.9512973E-05  0.1943849E-04  0.3141552E+01  0.1731049E+00  0.1570787E+01  0.5724072E-13  0.3124136E+01
  0.4600000E+00  0.2016698E+01 -0.1570798E+01  0.2932925E-04 -0.3141173E+01  0.4906755E+03 -0.1136250E-04  0.1003555E-04 -0.3910579E-04  0.1892782E+00  0.1570798E+01  0.5676378E-13  0.3325584E-01
  0.4800000E+00  0.2194470E+01 -0.1570790E+01  0.4580222E-04 -0.9563168E-04  0.4904737E+03 -0.1346452E-04  0.3918813E-04 -0.1921658E-04  0.2060042E+00  0.1570808E+01  0.5716694E-13 -0.3116343E+01
  0.5000000E+00  0.2379216E+01 -0.1570802E+01  0.7439492E-04  0.3141453E+01  0.4902578E+03 -0.1584571E-04  0.3609623E-06 -0.1096035E-02  0.2234533E+00  0.1570794E+01  0.1421372E-12  0.3138078E+01
  0.5200000E+00  0.2572968E+01 -0.1570797E+01  0.1379721E-04 -0.4155524E-03  0.4900399E+03 -0.1852886E-04  0.3418063E-04 -0.1934437E-04  0.2415489E+00  0.1570795E+01  0.7961139E-12  0.1324825E-02
  0.5400000E+00  0.2776045E+01 -0.1570796E+01  0.5755607E-04  0.1668675E-04  0.4898195E+03 -0.2153932E-04  0.3413484E-05 -0.3141431E+01  0.2605164E+00  0.1570797E+01  0.1703022E-12  0.3125621E+01
  0.5600000E+00  0.2987079E+01 -0.1570800E+01  0.1403112E-05 -0.6637598E-02  0.4895887E+03 -0.2490315E-04  0.1804090E-04 -0.3141475E+01  0.2803681E+00  0.1570794E+01  0.1701973E-12  0.1304632E-02
  0.5800000E+00  0.3204526E+01 -0.1570796E+01  0.9645945E-04 -0.8795175E-04  0.4893480E+03 -0.2864535E-04  0.1532029E-04  0.3141313E+01  0.3008158E+00  0.1570798E+01  0.1709189E-12  0.3140943E+01
  0.6000000E+00  0.3427466E+01 -0.1570793E+01  0.8774772E-04  0.3141210E+01  0.4890940E+03 -0.3278485E-04  0.2869627E-04 -0.3141521E+01  0.3218026E+00  0.1570786E+01  0.1987474E-12 -0.3114497E+01
  0.6199999E+00  0.3657209E+01 -0.1570796E+01  0.1604920E-04 -0.3140476E+01  0.4888272E+03 -0.3736180E-04  0.1248179E-04 -0.3141454E+01  0.3434542E+00  0.1570807E+01  0.5665121E-13  0.5490062E-01
  0.6400000E+00  0.3895461E+01 -0.1570795E+01  0.7778827E-04 -0.7669905E-04  0.4885466E+03 -0.4239483E-04  0.2679192E-06 -0.3140296E+01  0.3659686E+00  0.1570801E+01  0.4775250E-14  0.1594048E+01
  0.6600000E+00  0.4142624E+01 -0.1570799E+01  0.1083694E-03  0.3141509E+01  0.4882744E+03 -0.4792124E-04  0.2007917E-04  0.1887008E-03  0.3889988E+00  0.1570796E+01  0.1428937E-12 -0.5674834E-01
  0.6799999E+00  0.4398832E+01 -0.1570793E+01  0.9308937E-04  0.1138028E-03  0.4879914E+03 -0.5397727E-04  0.1904828E-04  0.3141354E+01  0.4129253E+00  0.1570797E+01  0.4818985E-12  0.3136524E+01
  0.7000000E+00  0.4663192E+01 -0.1570799E+01  0.1209248E-03 -0.5776701E-05  0.4876971E+03 -0.6057377E-04  0.5369382E-05  0.3140923E+01  0.4378184E+00  0.1570793E+01  0.5619308E-13  0.2371097E-01
  0.7200000E+00  0.4933637E+01 -0.1570800E+01  0.1217461E-04 -0.1749873E-02  0.4873906E+03 -0.6775495E-04  0.1075423E-04  0.2789135E-03  0.4631700E+00  0.1570799E+01  0.2272758E-12 -0.1074702E-01
  0.7399999E+00  0.5211288E+01 -0.1570796E+01  0.4111254E-04 -0.3141320E+01  0.4870722E+03 -0.7555469E-04  0.1246567E-04  0.2727243E-03  0.4893939E+00  0.1570798E+01  0.6820374E-12  0.8953041E-02
  0.7600000E+00  0.5493441E+01 -0.1570795E+01  0.1150898E-03 -0.3623764E-03  0.4867561E+03 -0.8401276E-04  0.1800641E-04  0.2770950E-03  0.5157142E+00  0.1570799E+01  0.1708096E-12 -0.4549858E-02
  0.7800000E+00  0.5783627E+01 -0.1570796E+01  0.1099930E-03  0.3651548E-04  0.4864296E+03 -0.9314415E-04  0.1097750E-04 -0.5998396E-04  0.5429460E+00  0.1570797E+01  0.6821896E-12  0.3135408E+01
  0.8000000E+00  0.6082492E+01 -0.1570801E+01  0.9714929E-05 -0.3140013E+01  0.4860936E+03 -0.1030010E-03  0.1028474E-04 -0.3141137E+01  0.5710941E+00  0.1570799E+01  0.1405927E-12  0.7271400E-01
  0.8200000E+00  0.6390686E+01 -0.1570797E+01  0.3553340E-04 -0.3140255E+01  0.4857460E+03 -0.1136079E-03  0.8398077E-05  0.1604969E-03  0.6000569E+00  0.1570792E+01  0.5624580E-13 -0.4936696E-01
  0.8400000E+00  0.6707947E+01 -0.1570793E+01  0.6498316E-04  0.7094218E-03  0.4853879E+03 -0.1250124E-03  0.8912437E-05  0.3141073E+01  0.6298790E+00  0.1570798E+01  0.3406164E-12  0.1554228E-09
  0.8600000E+00  0.7033362E+01 -0.1570793E+01  0.1677696E-04 -0.1942921E-02  0.4850221E+03 -0.1372591E-03  0.3024559E-04  0.8666286E-04  0.6604506E+00  0.1570798E+01  0.1404334E-14 -0.3217507E+00
  0.8800001E+00  0.7365580E+01 -0.1570794E+01  0.1363542E-03  0.3141141E+01  0.4846548E+03 -0.1503481E-03  0.5888375E-05 -0.3141150E+01  0.6915800E+00  0.1570795E+01  0.2017838E-12  0.4072637E-01
  0.9000000E+00  0.7705968E+01 -0.1570794E+01  0.8512611E-04 -0.3141368E+01  0.4842777E+03 -0.1643633E-03  0.1899757E-04  0.3745673E-03  0.7235522E+00  0.1570793E+01  0.1137842E-12 -0.6053202E-01
  0.9200000E+00  0.8053243E+01 -0.1570794E+01  0.4312371E-04  0.3140882E+01  0.4838906E+03 -0.1793534E-03  0.2436135E-04 -0.1134939E-04  0.7562702E+00  0.1570798E+01  0.3983737E-12  0.2619975E-01
  0.9399999E+00  0.8404537E+01 -0.1570796E+01  0.5759543E-04 -0.3141464E+01  0.4834931E+03 -0.1952887E-03  0.1799123E-04 -0.3141526E+01  0.7893515E+00  0.1570799E+01  0.1402846E-12 -0.3111515E+01
  0.9600000E+00  0.8762798E+01 -0.1570795E+01  0.2977389E-04  0.3225734E-03  0.4830842E+03 -0.2122966E-03  0.1087713E-04  0.3141333E+01  0.8230378E+00  0.1570797E+01  0.2789644E-13 -0.2900475E+01
  0.9800000E+00  0.9127696E+01 -0.1570796E+01  0.8259305E-04 -0.5222217E-03  0.4826638E+03 -0.2303449E-03  0.3849979E-05 -0.3141498E+01  0.8574451E+00  0.1570796E+01  0.1421780E-14  0.8960552E+00
  0.9999999E+00  0.9498838E+01 -0.1570794E+01  0.9178243E-04 -0.7800558E-03  0.4822433E+03 -0.2495123E-03  0.1022745E-05 -0.3132433E+01  0.8922783E+00  0.1570797E+01  0.4277773E-12  0.6228832E-02
  0.1020000E+01  0.9883847E+01 -0.1570793E+01  0.2939627E-04  0.6672980E-03  0.4818166E+03 -0.2698397E-03  0.7704157E-05  0.3140089E+01  0.9284490E+00  0.1570801E+01  0.8637992E-13 -0.1028242E-01
  0.1040000E+01  0.1027649E+02 -0.1570793E+01  0.2409605E-05 -0.3019568E-02  0.4813803E+03 -0.2913753E-03  0.6881521E-05  0.3912089E-03  0.9654243E+00  0.1570801E+01  0.7089893E-12  0.3140027E+01
  0.1060000E+01  0.1067785E+02 -0.1570793E+01  0.6018788E-04  0.2113113E-02  0.4809350E+03 -0.3141744E-03  0.2304065E-04  0.3141427E+01  0.1003260E+01  0.1570801E+01  0.5971107E-12  0.3119651E+01
  0.1080000E+01  0.1108599E+02 -0.1570791E+01  0.4671933E-04 -0.3141261E+01  0.4804783E+03 -0.3382439E-03  0.9473008E-05  0.1382915E-02  0.1041743E+01  0.1570799E+01  0.7630595E-12  0.2909929E-02
  0.1100000E+01  0.1149962E+02 -0.1570792E+01  0.1236748E-04 -0.4998335E-02  0.4800112E+03 -0.3636542E-03  0.7442826E-05 -0.5909481E-03  0.1080621E+01  0.1570801E+01  0.4839729E-12 -0.3117733E+01
  0.1120000E+01  0.1192210E+02 -0.1570792E+01  0.4859810E-04 -0.3892640E-03  0.4795324E+03 -0.3904476E-03  0.2087092E-04  0.1443274E-03  0.1120403E+01  0.1570799E+01  0.3129807E-12 -0.2767213E-01
  0.1140000E+01  0.1235159E+02 -0.1570790E+01  0.6955910E-05  0.3213361E-02  0.4790443E+03 -0.4187009E-03  0.1529372E-05  0.3480103E-02  0.1160823E+01  0.1570803E+01  0.1145770E-12 -0.3135779E+01
  0.1160000E+01  0.1278476E+02 -0.1570790E+01  0.4535760E-04  0.1174225E-02  0.4785612E+03 -0.4484172E-03  0.1329045E-04  0.1257784E-02  0.1201401E+01  0.1570802E+01  0.2543962E-12  0.3492030E-01
  0.1180000E+01  0.1322624E+02 -0.1570789E+01  0.3989873E-04  0.3828123E-02  0.4780688E+03 -0.4796476E-03  0.4593117E-05 -0.1934980E-02  0.1242921E+01  0.1570803E+01  0.3196594E-13 -0.2852797E+01
  0.1200000E+01  0.1367478E+02 -0.1570789E+01  0.1055240E-03  0.3140319E+01  0.4775663E+03 -0.5124853E-03  0.3600888E-05  0.9961560E-03  0.1285155E+01  0.1570803E+01  0.9110734E-12  0.7311596E-02
  0.1220000E+01  0.1412978E+02 -0.1570788E+01  0.7559211E-04  0.3140570E+01  0.4770541E+03 -0.5469426E-03  0.6802541E-05  0.3141154E+01  0.1328058E+01  0.1570807E+01  0.8943548E-13 -0.2971954E+01
  0.1240000E+01  0.1459062E+02 -0.1570788E+01  0.1408246E-04  0.1280545E-01  0.4765319E+03 -0.5830690E-03  0.2274752E-04  0.3141208E+01  0.1371603E+01  0.1570804E+01  0.6053475E-13  0.2836082E+01
  0.1260000E+01  0.1505666E+02 -0.1570786E+01  0.7043750E-04  0.3141140E+01  0.4759988E+03 -0.6209652E-03  0.1208262E-04 -0.3140985E+01  0.1415534E+01  0.1570805E+01  0.1693663E-12 -0.4458984E-01
  0.1280000E+01  0.1553643E+02 -0.1570785E+01  0.1002003E-04  0.2012419E-01  0.4754557E+03 -0.6605570E-03  0.2532390E-04  0.3141483E+01  0.1460726E+01  0.1570808E+01  0.6534618E-12  0.3116445E+01
  0.1300000E+01  0.1602244E+02 -0.1570784E+01  0.3676450E-04 -0.2726365E-02  0.4749000E+03 -0.7020241E-03  0.3005699E-05  0.1477491E-08  0.1506638E+01  0.1570809E+01  0.3115181E-12 -0.5277038E-01
  0.1320000E+01  0.1651641E+02 -0.1570782E+01  0.6853067E-05 -0.2211931E-01  0.4743395E+03 -0.7453969E-03  0.7767290E-05  0.6838226E-03  0.1553201E+01  0.1570810E+01  0.1093443E-13  0.1345520E+01
  0.1340000E+01  0.1701846E+02 -0.1570782E+01  0.7087622E-04  0.3141041E+01  0.4737826E+03 -0.7907163E-03  0.2101948E-04  0.6576945E-04  0.1600274E+01  0.1570809E+01  0.2528276E-12 -0.3337951E-01
  0.1360000E+01  0.1753068E+02 -0.1570781E+01  0.9437160E-04  0.3140130E+01  0.4732159E+03 -0.8380192E-03  0.1877567E-04 -0.3141057E+01  0.1648479E+01  0.1570813E+01  0.2255332E-12 -0.3104172E+01
  0.1380000E+01  0.1805163E+02 -0.1570779E+01  0.4870586E-04 -0.1787847E-02  0.4726410E+03 -0.8873790E-03  0.1290731E-04 -0.1631373E-02  0.1697527E+01  0.1570814E+01  0.7085644E-12 -0.3134072E+01
  0.1400000E+01  0.1858093E+02 -0.1570778E+01  0.1311847E-03 -0.3141398E+01  0.4720573E+03 -0.9388344E-03  0.1624498E-04  0.3139770E+01  0.1747403E+01  0.1570816E+01  0.3148706E-12  0.8462430E-02
  0.1420000E+01  0.1911822E+02 -0.1570777E+01  0.3270050E-04  0.3417652E-02  0.4714628E+03 -0.9924184E-03  0.1162449E-04 -0.4112248E-03  0.1798139E+01  0.1570817E+01  0.4536450E-12 -0.5873646E-02
  0.1440000E+01  0.1966030E+02 -0.1570775E+01  0.4614416E-04  0.3133860E+01  0.4708581E+03 -0.1048245E-02  0.8001008E-05 -0.3141011E+01  0.1849275E+01  0.1570819E+01  0.5116233E-12 -0.1128424E-01
  0.1460000E+01  0.2020477E+02 -0.1570772E+01  0.2869236E-04 -0.1955649E-02  0.4702427E+03 -0.1106330E-02  0.9154859E-05  0.3138434E+01  0.1900588E+01  0.1570820E+01  0.2243090E-12 -0.1979940E-01
  0.1480000E+01  0.2075634E+02 -0.1570770E+01  0.5345553E-04 -0.3138304E+01  0.4696176E+03 -0.1166673E-02  0.1714783E-04 -0.3140824E+01  0.1952601E+01  0.1570822E+01  0.1190625E-12  0.6718844E-01
  0.1500000E+01  0.2131229E+02 -0.1570768E+01  0.1070180E-03  0.3140349E+01  0.4689800E+03 -0.1229423E-02  0.2276011E-05 -0.1031946E-01  0.2005172E+01  0.1570824E+01  0.9553597E-13  0.2790439E+01
  0.1520000E+01  0.2187319E+02 -0.1570766E+01  0.2237939E-04 -0.3134065E+01  0.4683355E+03 -0.1294583E-02  0.1173045E-04  0.6456934E-03  0.2058163E+01  0.1570827E+01  0.3970217E-12  0.3083395E+01
  0.1540000E+01  0.2243788E+02 -0.1570765E+01  0.4174083E-04  0.6660190E-02  0.4676998E+03 -0.1362260E-02  0.1375057E-04 -0.3140390E+01  0.2111237E+01  0.1570829E+01  0.2878935E-12  0.2931257E-01
  0.1560000E+01  0.2300931E+02 -0.1570762E+01  0.1317882E-03  0.3139876E+01  0.4670554E+03 -0.1432515E-02  0.1340635E-04  0.3139957E+01  0.2165050E+01  0.1570832E+01  0.1710158E-12 -0.2995656E+01
  0.1580000E+01  0.2358843E+02 -0.1570759E+01  0.4402638E-04 -0.4458165E-02  0.4664014E+03 -0.1505382E-02  0.1870425E-04  0.3141214E+01  0.2219701E+01  0.1570834E+01  0.2540578E-12  0.3124112E+01
  0.1600000E+01  0.2418134E+02 -0.1570756E+01  0.8855083E-04 -0.3139400E+01  0.4657393E+03 -0.1580885E-02  0.1490897E-04  0.3140206E+01  0.2275748E+01  0.1570838E+01  0.1976516E-12  0.1797560E-01
  0.1620000E+01  0.2478495E+02 -0.1570753E+01  0.1254214E-04  0.3132775E+01  0.4650680E+03 -0.1659134E-02  0.2894669E-05  0.3136991E+01  0.2332776E+01  0.1570840E+01  0.8879120E-12  0.3121586E+01
  0.1640000E+01  0.2539868E+02 -0.1570750E+01  0.1598180E-03 -0.3140855E+01  0.4643867E+03 -0.1740162E-02  0.8969532E-06 -0.3139305E+01  0.2390945E+01  0.1570844E+01  0.2697637E-13 -0.3529904E+00
  0.1660000E+01  0.2601885E+02 -0.1570745E+01  0.2130859E-03  0.1275136E-02  0.4636960E+03 -0.1824034E-02  0.2082168E-05 -0.2287993E-01  0.2449641E+01  0.1570846E+01  0.4266598E-12  0.3081186E+01
  0.1680000E+01  0.2664555E+02 -0.1570742E+01  0.7741626E-04  0.3139431E+01  0.4629948E+03 -0.1910795E-02  0.8828187E-05  0.1080492E-02  0.2508800E+01  0.1570850E+01  0.2017279E-12 -0.1369158E+00
  0.1700000E+01  0.2728132E+02 -0.1570737E+01  0.2180330E-03  0.1134075E-02  0.4622832E+03 -0.2000461E-02  0.3751635E-04  0.3139880E+01  0.2568794E+01  0.1570855E+01  0.1990233E-12  0.3114814E+01
  0.1720000E+01  0.2792530E+02 -0.1570733E+01  0.6318408E-04 -0.3887649E-02  0.4615616E+03 -0.2093153E-02  0.2880108E-05 -0.3958688E-02  0.2629723E+01  0.1570858E+01  0.5660178E-13 -0.2034444E+01
  0.1740000E+01  0.2857522E+02 -0.1570729E+01  0.1559622E-04  0.3129650E+01  0.4608276E+03 -0.2188887E-02  0.5682756E-05 -0.3141347E+01  0.2691220E+01  0.1570864E+01  0.2192289E-13  0.1218424E+00
  0.1760000E+01  0.2923175E+02 -0.1570725E+01  0.6930040E-04  0.3139089E+01  0.4600956E+03 -0.2287738E-02  0.1628640E-05 -0.1140133E-01  0.2753189E+01  0.1570868E+01  0.3375826E-12 -0.3120544E+01
  0.1780000E+01  0.2989426E+02 -0.1570719E+01  0.1331446E-04  0.9635517E-02  0.4593694E+03 -0.2389918E-02  0.2261004E-04 -0.3141031E+01  0.2815458E+01  0.1570873E+01  0.2842295E-12 -0.9374736E-02
  0.1800000E+01  0.3056567E+02 -0.1570714E+01  0.8182864E-04  0.3135822E+01  0.4586340E+03 -0.2495336E-02  0.2155998E-04 -0.3831027E-02  0.2878672E+01  0.1570878E+01  0.9437391E-13 -0.2874928E+01
  0.1820000E+01  0.3124355E+02 -0.1570709E+01  0.8777635E-04  0.3139924E+01  0.4578895E+03 -0.2604076E-02  0.1732918E-05  0.2289318E-01  0.2942656E+01  0.1570884E+01  0.2038446E-12 -0.8714369E-02
  0.1840000E+01  0.3192545E+02 -0.1570703E+01  0.5639560E-04 -0.5210233E-02  0.4571374E+03 -0.2716169E-02  0.2553315E-04  0.2969280E-03  0.3007128E+01  0.1570889E+01  0.5213085E-13 -0.2900746E+01
  0.1860000E+01  0.3261477E+02 -0.1570697E+01  0.9161229E-05  0.3089113E+01  0.4563770E+03 -0.2831742E-02  0.3119207E-04  0.3140502E+01  0.3072374E+01  0.1570896E+01  0.5446931E-13  0.2721713E+01
  0.1880000E+01  0.3330962E+02 -0.1570690E+01  0.1911797E-04  0.1161867E-01  0.4556080E+03 -0.2950772E-02  0.4150857E-06  0.3059325E+01  0.3138195E+01  0.1570903E+01  0.3175424E-12 -0.7559203E-01
  0.1900000E+01  0.3401053E+02 -0.1570684E+01  0.9903777E-04 -0.2120540E-02  0.4548289E+03 -0.3073375E-02  0.5445125E-05 -0.1182861E-01  0.3204711E+01  0.1570909E+01  0.2162728E-12 -0.1111108E+00
  0.1920000E+01  0.3471403E+02 -0.1570676E+01  0.4545278E-04 -0.4179963E-02  0.4540410E+03 -0.3199583E-02  0.3846015E-05  0.3136027E+01  0.3271415E+01  0.1570917E+01  0.8542226E-13  0.1566018E+00
  0.1940000E+01  0.3542096E+02 -0.1570668E+01  0.2244984E-04  0.3136334E+01  0.4532429E+03 -0.3329383E-02  0.6963104E-05  0.8395066E-02  0.3338325E+01  0.1570925E+01  0.1303052E-12  0.4819382E+00
  0.1960000E+01  0.3613399E+02 -0.1570660E+01  0.4435342E-04  0.4514514E-03  0.4524359E+03 -0.3462934E-02  0.9720093E-05 -0.4121517E-02  0.3405806E+01  0.1570932E+01  0.1463239E-12 -0.5465676E-01
  0.1980000E+01  0.3685253E+02 -0.1570652E+01  0.8962710E-04 -0.3132630E+01  0.4516183E+03 -0.3600235E-02  0.3227063E-04 -0.1568801E-02  0.3473989E+01  0.1570941E+01  0.1276147E-11 -0.2088105E-01
  0.2000000E+01  0.3758080E+02 -0.1570643E+01  0.7956645E-04  0.2174199E-02  0.4507900E+03 -0.3741396E-02  0.1976002E-04  0.1509698E-03  0.3543166E+01  0.1570949E+01  0.7688183E-12 -0.9139203E-01
  0.2020000E+01  0.3832158E+02 -0.1570634E+01  0.9900472E-04 -0.3141070E+01  0.4499509E+03 -0.3886403E-02  0.3967162E-05 -0.3123779E+01  0.3613531E+01  0.1570958E+01  0.2561298E-12  0.1531766E+00
  0.2040000E+01  0.3906981E+02 -0.1570624E+01  0.1532011E-03 -0.3137840E+01  0.4491291E+03 -0.4035680E-02  0.1938696E-05 -0.3139851E+01  0.3684180E+01  0.1570968E+01  0.8981609E-12  0.2175720E-01
  0.2060000E+01  0.3982738E+02 -0.1570614E+01  0.3837847E-04  0.5769445E-02  0.4483038E+03 -0.4188954E-02  0.2730535E-05 -0.3116521E+01  0.3755598E+01  0.1570978E+01  0.4481923E-12 -0.4956256E-01
  0.2080000E+01  0.4059563E+02 -0.1570604E+01  0.1215553E-03  0.3139809E+01  0.4474689E+03 -0.4346417E-02  0.8893555E-06 -0.1744881E+00  0.3828251E+01  0.1570989E+01  0.4938345E-12 -0.3136197E+01
  0.2100000E+01  0.4137299E+02 -0.1570592E+01  0.9212829E-04 -0.3135237E+01  0.4466263E+03 -0.4507968E-02  0.8506312E-06  0.3083995E+01  0.3901854E+01  0.1571000E+01  0.2285938E-12 -0.1207406E+00
  0.2120000E+01  0.4215665E+02 -0.1570580E+01  0.3786760E-04  0.2741365E-01  0.4457762E+03 -0.4673831E-02  0.1800372E-05 -0.3104598E+01  0.3976089E+01  0.1571012E+01  0.6289062E-12  0.3126057E+01
  0.2140000E+01  0.4294955E+02 -0.1570568E+01  0.7925741E-05 -0.3816936E-01  0.4449187E+03 -0.4843991E-02  0.5734474E-05  0.1494206E-01  0.4051348E+01  0.1571024E+01  0.4019761E-12 -0.3090752E+01
  0.2160000E+01  0.4374898E+02 -0.1570556E+01  0.9421914E-04 -0.7635886E-03  0.4440534E+03 -0.5018511E-02  0.2386197E-05  0.1221534E-01  0.4127133E+01  0.1571038E+01  0.7514247E-12 -0.3133319E+01
  0.2180000E+01  0.4455793E+02 -0.1570542E+01  0.2276026E-04  0.5657055E-02  0.4431779E+03 -0.5197466E-02  0.7860706E-06  0.3031613E+01  0.4204111E+01  0.1571051E+01  0.2274864E-12 -0.3047752E+01
  0.2200000E+01  0.4537125E+02 -0.1570528E+01  0.9421675E-04  0.8565366E-02  0.4422951E+03 -0.5380808E-02  0.1879843E-04 -0.5999297E-03  0.4281422E+01  0.1571065E+01  0.6010811E-13  0.3310961E+00
  0.2220000E+01  0.4618890E+02 -0.1570513E+01  0.1393357E-04 -0.3096728E+01  0.4414043E+03 -0.5568731E-02  0.5566790E-05 -0.1349942E-01  0.4359088E+01  0.1571079E+01  0.3432520E-12  0.4918311E-01
  0.2240000E+01  0.4701132E+02 -0.1570498E+01  0.2946873E-04 -0.5925739E-02  0.4405040E+03 -0.5761111E-02  0.1173632E-04 -0.4962120E-02  0.4437074E+01  0.1571095E+01  0.1384903E-12  0.2801589E+01
  0.2260000E+01  0.4784133E+02 -0.1570481E+01  0.1327807E-03  0.3138917E+01  0.4395951E+03 -0.5958103E-02  0.2225286E-05 -0.7631522E-02  0.4515763E+01  0.1571111E+01  0.5703274E-12 -0.3121346E+01
  0.2280000E+01  0.4867830E+02 -0.1570465E+01  0.4350742E-04 -0.8626752E-02  0.4386764E+03 -0.6159771E-02  0.1249858E-04 -0.3141203E+01  0.4595212E+01  0.1571127E+01  0.7611953E-13 -0.8431850E+00
  0.2300000E+01  0.4951950E+02 -0.1570448E+01  0.1647229E-03  0.1831852E-02  0.4377476E+03 -0.6366136E-02  0.1262102E-04 -0.8302778E-02  0.4675280E+01  0.1571145E+01  0.5329070E-13 -0.9272952E+00
  0.2320000E+01  0.5036514E+02 -0.1570429E+01  0.4705039E-04 -0.3132200E+01  0.4368103E+03 -0.6577252E-02  0.1021225E-06 -0.2496609E+01  0.4755768E+01  0.1571163E+01  0.2590376E-12  0.2983208E+01
  0.2340000E+01  0.5121625E+02 -0.1570410E+01  0.7268791E-05 -0.3078449E+01  0.4358709E+03 -0.6793296E-02  0.1605074E-05  0.1080981E+00  0.4836675E+01  0.1571182E+01  0.8848415E-13  0.1908418E+01
  0.2360000E+01  0.5207048E+02 -0.1570391E+01  0.1041665E-04  0.7019749E-01  0.4349492E+03 -0.7014692E-02  0.1180364E-04  0.1042009E-01  0.4917481E+01  0.1571202E+01  0.1551060E-12 -0.2547006E+00
  0.2380000E+01  0.5293111E+02 -0.1570370E+01  0.6505461E-04 -0.3119623E+01  0.4340222E+03 -0.7241009E-02  0.1358241E-05  0.3043404E+01  0.4998806E+01  0.1571222E+01  0.4899308E-12  0.4715196E-01
  0.2400000E+01  0.5379932E+02 -0.1570349E+01  0.2668594E-04  0.3139394E+01  0.4330859E+03 -0.7472469E-02  0.1433251E-04  0.3695731E-02  0.5081151E+01  0.1571244E+01  0.7105422E-14 -0.1570795E+01
  0.2420000E+01  0.5467370E+02 -0.1570327E+01  0.3294470E-04  0.2970122E-01  0.4321424E+03 -0.7709003E-02  0.9004751E-05 -0.2391721E-02  0.5164218E+01  0.1571266E+01  0.6799642E-13 -0.1987694E+01
  0.2440000E+01  0.5555132E+02 -0.1570304E+01  0.9043110E-04  0.3131294E+01  0.4311925E+03 -0.7950754E-02  0.1460443E-04 -0.1259455E-02  0.5247600E+01  0.1571290E+01  0.1702084E-12 -0.2628919E+01
  0.2460000E+01  0.5643491E+02 -0.1570279E+01  0.7037782E-04 -0.3135571E+01  0.4302354E+03 -0.8197794E-02  0.1825901E-05  0.3085265E+01  0.5331797E+01  0.1571314E+01  0.5794546E-12  0.8594163E-01
  0.2480000E+01  0.5732408E+02 -0.1570254E+01  0.5082983E-04 -0.3139623E+01  0.4292720E+03 -0.8450138E-02  0.1882426E-04 -0.3138649E+01  0.5416527E+01  0.1571338E+01  0.7494458E-13  0.2119346E+01
  0.2500000E+01  0.5821724E+02 -0.1570228E+01  0.4427195E-04  0.1101278E-01  0.4283011E+03 -0.8707764E-02  0.9452248E-08  0.2330285E+00  0.5501642E+01  0.1571364E+01  0.2064322E-12 -0.6027180E-01
  0.2520000E+01  0.5912803E+02 -0.1570201E+01  0.4304519E-04 -0.3101220E+01  0.4273220E+03 -0.8970942E-02  0.4749432E-06 -0.3659146E-01  0.5588726E+01  0.1571392E+01  0.4621294E-12  0.3106991E+01
  0.2540000E+01  0.6004658E+02 -0.1570173E+01  0.1030031E-04  0.2632029E+00  0.4263348E+03 -0.9239636E-02  0.1244423E-04 -0.3128191E+01  0.5676441E+01  0.1571420E+01  0.3090861E-12 -0.3141592E+01
  0.2560000E+01  0.6097274E+02 -0.1570144E+01  0.3551540E-05  0.1320230E+00  0.4253407E+03 -0.9513787E-02  0.2392767E-06 -0.2315851E+00  0.5764799E+01  0.1571449E+01  0.9327565E-13  0.3122547E+01
  0.2580000E+01  0.6190514E+02 -0.1570114E+01  0.2843246E-04 -0.3136696E+01  0.4243387E+03 -0.9793425E-02  0.1567544E-04 -0.3122730E+01  0.5853589E+01  0.1571479E+01  0.3948829E-12 -0.3033419E+01
  0.2600000E+01  0.6284664E+02 -0.1570082E+01  0.1413513E-03 -0.6819313E-03  0.4233294E+03 -0.1007855E-01  0.1672978E-05 -0.3061326E+01  0.5943245E+01  0.1571511E+01  0.6789031E-12  0.3110189E+01
  0.2620000E+01  0.6379753E+02 -0.1570050E+01  0.2822406E-04 -0.8546454E-02  0.4223118E+03 -0.1036934E-01  0.2093579E-04 -0.3480935E-02  0.6033781E+01  0.1571543E+01  0.5285139E-12  0.3128148E+01
  0.2640000E+01  0.6475592E+02 -0.1570016E+01  0.1170618E-03 -0.1687907E-01  0.4212852E+03 -0.1066597E-01  0.4682843E-05  0.3098516E+01  0.6125309E+01  0.1571577E+01  0.2137689E-12  0.2703961E+01
  0.2660000E+01  0.6571950E+02 -0.1569980E+01  0.1180994E-03  0.1014147E-01  0.4202500E+03 -0.1096819E-01  0.1526153E-04 -0.8104769E-03  0.6217362E+01  0.1571613E+01  0.5618015E-12  0.3071975E+01
  0.2680000E+01  0.6669039E+02 -0.1569944E+01  0.1209669E-03  0.3139522E+01  0.4192062E+03 -0.1127612E-01  0.5767899E-05  0.1945795E-01  0.6310128E+01  0.1571648E+01  0.5579570E-12 -0.3116120E+01
  0.2700000E+01  0.6766780E+02 -0.1569906E+01  0.5358291E-04 -0.3110137E+01  0.4181610E+03 -0.1159011E-01  0.5055528E-05  0.3109292E+01  0.6403423E+01  0.1571686E+01  0.2921013E-12  0.7304057E-01
  0.2720000E+01  0.6864929E+02 -0.1569867E+01  0.4916477E-04 -0.3120252E+01  0.4171393E+03 -0.1191078E-01  0.1599493E-04  0.2235706E-01  0.6496616E+01  0.1571726E+01  0.9381116E-13  0.1898535E+01
  0.2740000E+01  0.6963859E+02 -0.1569827E+01  0.1154946E-04  0.3048119E+01  0.4161133E+03 -0.1223749E-01  0.1126277E-04 -0.9054716E-02  0.6590468E+01  0.1571766E+01  0.2029346E-12 -0.3027552E+01
  0.2760000E+01  0.7063619E+02 -0.1569785E+01  0.4170078E-04  0.1475176E-01  0.4150815E+03 -0.1257020E-01  0.5699891E-05 -0.3105332E+01  0.6685184E+01  0.1571808E+01  0.5086712E-13 -0.4324078E+00
  0.2780000E+01  0.7164278E+02 -0.1569742E+01  0.6362508E-04  0.3117753E+01  0.4140417E+03 -0.1290914E-01  0.7908080E-05  0.3125873E+01  0.6781118E+01  0.1571851E+01  0.3461994E-12  0.3728839E+00
  0.2800000E+01  0.7265573E+02 -0.1569697E+01  0.1203057E-04  0.2965183E+01  0.4129967E+03 -0.1325432E-01  0.2043636E-06  0.7632423E+00  0.6877671E+01  0.1571895E+01  0.1981912E-12 -0.3105733E+01
  0.2820000E+01  0.7367197E+02 -0.1569650E+01  0.3150569E-04 -0.2368014E-01  0.4119457E+03 -0.1360568E-01  0.1021230E-04 -0.1546977E-01  0.6974545E+01  0.1571942E+01  0.3389597E-12 -0.5767873E-01
  0.2840000E+01  0.7469670E+02 -0.1569602E+01  0.1156367E-03  0.3139567E+01  0.4108891E+03 -0.1396355E-01  0.9761026E-05  0.3121114E+01  0.7072460E+01  0.1571990E+01  0.5685037E-13  0.1586420E+01
  0.2860000E+01  0.7572877E+02 -0.1569553E+01  0.1157120E-04 -0.7149240E-01  0.4098267E+03 -0.1432772E-01  0.1049694E-04 -0.4824327E-03  0.7171096E+01  0.1572039E+01  0.3961365E-12  0.6731388E-01
  0.2880000E+01  0.7676308E+02 -0.1569501E+01  0.8354095E-05  0.6576543E-01  0.4087588E+03 -0.1469815E-01  0.2333918E-04  0.3803334E-03  0.7269817E+01  0.1572091E+01  0.5426297E-12  0.5568010E-01
  0.2900000E+01  0.7780642E+02 -0.1569449E+01  0.1506013E-03 -0.3133817E+01  0.4076830E+03 -0.1507525E-01  0.3037334E-04  0.6799460E-02  0.7369865E+01  0.1572144E+01  0.4497972E-12  0.2958913E+01
  0.2920000E+01  0.7885387E+02 -0.1569394E+01  0.2128380E-04  0.6246044E-01  0.4066015E+03 -0.1545879E-01  0.4643245E-05  0.3445571E-01  0.7470294E+01  0.1572199E+01  0.5684460E-12 -0.3085314E+01
  0.2940000E+01  0.7990350E+02 -0.1569337E+01  0.1556109E-03  0.3133537E+01  0.4055137E+03 -0.1584866E-01  0.8486829E-05 -0.3130722E+01  0.7570858E+01  0.1572255E+01  0.3114759E-12  0.6277457E-01
  0.2960000E+01  0.8095527E+02 -0.1569279E+01  0.1036809E-04 -0.3108351E+01  0.4044201E+03 -0.1624501E-01  0.1263029E-04 -0.3131596E+01  0.7671561E+01  0.1572313E+01  0.6276506E-12 -0.2109945E+00
  0.2980000E+01  0.8201092E+02 -0.1569219E+01  0.3452904E-05  0.1327682E+01  0.4033199E+03 -0.1664788E-01  0.1009767E-04 -0.3129570E+01  0.7772513E+01  0.1572373E+01  0.2506568E-12  0.6824884E+00
  0.3000000E+01  0.8307237E+02 -0.1569156E+01  0.8340086E-04 -0.1055284E-01  0.4022132E+03 -0.1705729E-01  0.1913117E-04  0.9552252E-02  0.7873996E+01  0.1572436E+01  0.2099786E-12  0.2083647E+01
  0.3020000E+01  0.8413943E+02 -0.1569092E+01  0.8170350E-04  0.3125428E+01  0.4010998E+03 -0.1747318E-01  0.3296118E-06 -0.2437382E-01  0.7976049E+01  0.1572501E+01  0.2344858E-12  0.2762185E+00