VARIABLES="w (rad/s)"
"abs(F   1   1)" "angle(F   1   1)"
"abs(F   1   2)" "angle(F   1   2)"
"abs(F   1   3)" "angle(F   1   3)"
"abs(F   1   4)" "angle(F   1   4)"
"abs(F   1   5)" "angle(F   1   5)"
"abs(F   1   6)" "angle(F   1   6)"
Zone t="Diffraction force - beta =   0.000 deg",I=    21,F=POINT
  0.3000000E+01  0.4390175E+03  0.1488199E+01  0.3764463E-03 -0.1551127E+01  0.1116357E+05  0.1196283E+01  0.7860400E-03  0.1630585E+01  0.4894685E+03  0.1460608E+01  0.1662184E-11 -0.1699393E+01
  0.3100000E+01  0.4276461E+03  0.1481948E+01  0.3720917E-03  0.1397295E+01  0.1083258E+05  0.1065370E+01  0.3237728E-03 -0.3656010E+00  0.5215665E+03  0.1446078E+01  0.6355288E-13 -0.2677945E+01
  0.3200000E+01  0.4854791E+03  0.1459759E+01  0.1549112E-03  0.1644914E+01  0.1081409E+05  0.1010448E+01  0.7163673E-03 -0.1720624E+01  0.5575320E+03  0.1422770E+01  0.1184541E-11 -0.5280744E+00
  0.3300000E+01  0.5084034E+03  0.1443621E+01  0.2013322E-03 -0.1424451E+01  0.9995544E+04  0.1057978E+01  0.8260841E-03  0.2107887E+01  0.6423992E+03  0.1391322E+01  0.2363706E-11 -0.2253988E+01
  0.3400000E+01  0.4941444E+03  0.1435151E+01  0.6213729E-04  0.2567491E+01  0.9990080E+04  0.1015169E+01  0.2388106E-03  0.1187602E+01  0.5618204E+03  0.1383219E+01  0.9932361E-12  0.1235472E+01
  0.3500000E+01  0.5082773E+03  0.1402580E+01  0.1380674E-03  0.2906472E+00  0.9851580E+04  0.1046858E+01  0.7900191E-03 -0.2334426E+01  0.6173558E+03  0.1327814E+01  0.3661136E-11  0.1640721E+01
  0.3600000E+01  0.5887073E+03  0.1367787E+01  0.1042707E-03 -0.8821924E+00  0.9331159E+04  0.9023893E+00  0.5622576E-04 -0.1246029E+01  0.7175988E+03  0.1290798E+01  0.5273778E-11  0.1595050E+01
  0.3700000E+01  0.6364940E+03  0.1331173E+01  0.9298467E-04  0.1579210E+01  0.8782895E+04  0.9821219E+00  0.4937020E-03  0.2039411E+01  0.7342643E+03  0.1251179E+01  0.1421085E-13 -0.3141592E+01
  0.3800000E+01  0.6244427E+03  0.1308228E+01  0.1865028E-03  0.1954902E+01  0.8631808E+04  0.9157547E+00  0.1759111E-03 -0.1423150E-01  0.7099014E+03  0.1203426E+01  0.1172288E-11  0.5341824E+00
  0.3900000E+01  0.6009956E+03  0.1288807E+01  0.5375589E-04 -0.9842977E+00  0.8728017E+04  0.8456967E+00  0.7626603E-03  0.2378025E+01  0.7188938E+03  0.1159880E+01  0.1021008E-11 -0.2178102E+01
  0.4000000E+01  0.6467280E+03  0.1258745E+01  0.1763918E-03 -0.2869788E+01  0.8666034E+04  0.7072812E+00  0.1266288E-03 -0.2198105E+01  0.7542024E+03  0.1137909E+01  0.7494458E-12 -0.2119346E+01
  0.4100000E+01  0.6830599E+03  0.1233139E+01  0.2389343E-03  0.2725024E+01  0.8039936E+04  0.6651363E+00  0.4564869E-03  0.4053375E+00  0.7805147E+03  0.1106518E+01  0.3460365E-11 -0.2076698E+01
  0.4200000E+01  0.7271094E+03  0.1150150E+01  0.8325135E-04  0.3949735E+00  0.8239155E+04  0.7049277E+00  0.5500270E-03 -0.2325865E+01  0.8559184E+03  0.9911495E+00  0.1111199E-11  0.1500400E+01
  0.4300000E+01  0.7173279E+03  0.1096551E+01  0.1948061E-03  0.5027577E+00  0.7917145E+04  0.8214925E+00  0.7500363E-03  0.3080523E+01  0.8615042E+03  0.8860930E+00  0.1421103E-11  0.1565796E+01
  0.4400000E+01  0.7078958E+03  0.1119883E+01  0.1459282E-03  0.1586439E+01  0.7191148E+04  0.6915668E+00  0.2927043E-03 -0.6111889E+00  0.8438160E+03  0.9366612E+00  0.1078996E-11 -0.2915781E+01
  0.4500000E+01  0.7284277E+03  0.1108620E+01  0.5701945E-04  0.1447315E+01  0.7235572E+04  0.4857133E+00  0.3189573E-03  0.2878248E-01  0.8746496E+03  0.9166412E+00  0.7485011E-12  0.1062027E+01
  0.4600000E+01  0.7403004E+03  0.1025793E+01  0.4863013E-04 -0.3118264E+01  0.7285492E+04  0.4794946E+00  0.5404933E-03  0.1511432E+01  0.8822557E+03  0.7622352E+00  0.2480438E-11 -0.1221413E+01
  0.4700000E+01  0.7785191E+03  0.9511514E+00  0.1082564E-03  0.2766365E+01  0.7214931E+04  0.3101366E+00  0.3493680E-03  0.3033559E+01  0.8913008E+03  0.6472585E+00  0.2301325E-12 -0.1415800E+01
  0.4800000E+01  0.8051231E+03  0.8941818E+00  0.1848303E-03 -0.2106752E+00  0.7578589E+04  0.1213382E+00  0.3168415E-03  0.2432824E+01  0.8922115E+03  0.6483591E+00  0.1167735E-11 -0.3737268E+00
  0.4900000E+01  0.7844603E+03  0.8359051E+00  0.2759320E-03 -0.3916895E-01  0.8031186E+04  0.1321276E+00  0.7157134E-03 -0.3101441E+01  0.9004127E+03  0.6100386E+00  0.4972580E-12  0.1154295E+01
  0.5000000E+01  0.7952106E+03  0.8428077E+00  0.1200035E-03 -0.4151666E-01  0.7321730E+04 -0.6187726E-02  0.1239746E-03 -0.3098309E+01  0.1017375E+04  0.5040978E+00  0.1074119E-11 -0.4518138E+00
