VARIABLES="w (rad/s)"
"abs(F   1   1)" "angle(F   1   1)"
"abs(F   1   2)" "angle(F   1   2)"
"abs(F   1   3)" "angle(F   1   3)"
"abs(F   1   4)" "angle(F   1   4)"
"abs(F   1   5)" "angle(F   1   5)"
"abs(F   1   6)" "angle(F   1   6)"
Zone t="Diffraction force - beta =   0.000 deg",I=    21,F=POINT
  0.3000000E+01  0.3277754E+03  0.1460066E+01  0.3768916E-03 -0.1568296E+01  0.1150156E+05  0.1127485E+01  0.8236765E-03  0.1833748E+01  0.4954195E+03  0.1461937E+01  0.1536416E-11 -0.1524533E+01
  0.3100000E+01  0.3095879E+03  0.1447919E+01  0.3674712E-03  0.1590060E+01  0.1126435E+05  0.9999248E+00  0.2560852E-03 -0.4312699E+00  0.5280673E+03  0.1447621E+01  0.2352316E-12 -0.2007423E+01
  0.3200000E+01  0.3607245E+03  0.1421106E+01  0.1586327E-03  0.1806224E+01  0.1127958E+05  0.9477642E+00  0.7206032E-03 -0.1698024E+01  0.5646094E+03  0.1424639E+01  0.3145703E-12 -0.1892547E+01
  0.3300000E+01  0.3768327E+03  0.1398834E+01  0.2119266E-03 -0.1233389E+01  0.1042577E+05  0.9888739E+00  0.7917647E-03  0.2032626E+01  0.6500767E+03  0.1393464E+01  0.2326070E-11 -0.2182523E+01
  0.3400000E+01  0.3555723E+03  0.1381741E+01  0.6814940E-04  0.2626799E+01  0.1044470E+05  0.9485838E+00  0.3156143E-03  0.8516824E+00  0.5701650E+03  0.1385996E+01  0.8414457E-12  0.1486253E+01
  0.3500000E+01  0.3633819E+03  0.1334418E+01  0.1193883E-03  0.3414198E+00  0.1028058E+05  0.9786132E+00  0.8027765E-03 -0.2332986E+01  0.6263146E+03  0.1331358E+01  0.3542154E-11  0.1671263E+01
  0.3600000E+01  0.4376364E+03  0.1296140E+01  0.8324694E-04 -0.1758481E+01  0.9847756E+04  0.8384985E+00  0.5800930E-04 -0.1520428E+01  0.7272243E+03  0.1294602E+01  0.4888307E-11  0.1495139E+01
  0.3700000E+01  0.4796808E+03  0.1250419E+01  0.9189055E-04  0.1406621E+01  0.9246455E+04  0.9107801E+00  0.5717208E-03  0.2246205E+01  0.7445636E+03  0.1255754E+01  0.3509822E-12  0.2768605E+01
  0.3800000E+01  0.4616632E+03  0.1212070E+01  0.2045468E-03  0.2140890E+01  0.9130396E+04  0.8476350E+00  0.2262293E-03  0.5852374E-01  0.7208542E+03  0.1209267E+01  0.1532138E-11  0.7066141E+00
  0.3900000E+01  0.4323485E+03  0.1173625E+01  0.1141579E-03 -0.2744915E+01  0.9260003E+04  0.7830380E+00  0.7303583E-03  0.2326009E+01  0.7305138E+03  0.1166800E+01  0.1798109E-11 -0.2844837E+01
  0.4000000E+01  0.4727859E+03  0.1137391E+01  0.2808104E-03 -0.2966864E+01  0.9261414E+04  0.6535372E+00  0.9766156E-04 -0.1793570E+01  0.7666071E+03  0.1145374E+01  0.5549515E-12 -0.2446855E+01
  0.4100000E+01  0.5038357E+03  0.1105017E+01  0.1713661E-03  0.2547099E+01  0.8647772E+04  0.6111220E+00  0.4201317E-03  0.4168702E+00  0.7936674E+03  0.1114800E+01  0.3623106E-11 -0.1988821E+01
  0.4200000E+01  0.5487274E+03  0.9990534E+00  0.4745828E-04  0.6654977E+00  0.8821559E+04  0.6500157E+00  0.4954604E-03 -0.2326098E+01  0.8691559E+03  0.1001088E+01  0.2385150E-11  0.2788749E+01
  0.4300000E+01  0.5389200E+03  0.9174517E+00  0.9382966E-04  0.1700697E+01  0.8437007E+04  0.7574208E+00  0.7870951E-03  0.3084919E+01  0.8746725E+03  0.8983240E+00  0.1348909E-11  0.1215724E+01
  0.4400000E+01  0.5202651E+03  0.9360760E+00  0.1568451E-03  0.1905168E+01  0.7766072E+04  0.6317185E+00  0.5269892E-03 -0.3401803E+00  0.8584738E+03  0.9491615E+00  0.1124864E-11 -0.3040353E+01
  0.4500000E+01  0.5355605E+03  0.9191771E+00  0.6335191E-04  0.2105697E+01  0.7878427E+04  0.4431050E+00  0.1966190E-03  0.1151975E-01  0.8900920E+03  0.9298775E+00  0.8205088E-12  0.1162849E+01
  0.4600000E+01  0.5535536E+03  0.8047165E+00  0.1661695E-03 -0.3126078E+01  0.7921542E+04  0.4381765E+00  0.5585975E-03  0.1374646E+01  0.8966470E+03  0.7789020E+00  0.3197097E-11 -0.9424083E+00
  0.4700000E+01  0.5982020E+03  0.7139187E+00  0.1048595E-03  0.2759112E+01  0.7884112E+04  0.2830496E+00  0.4214776E-03  0.3017391E+01  0.9047424E+03  0.6666651E+00  0.8129914E-12 -0.2839881E+01
  0.4800000E+01  0.6299709E+03  0.6430863E+00  0.1998263E-03 -0.1959839E+00  0.8263974E+04  0.1112312E+00  0.3110858E-03  0.2395664E+01  0.9065354E+03  0.6689370E+00  0.1298125E-11 -0.4901183E+00
  0.4900000E+01  0.6178530E+03  0.5523151E+00  0.2322123E-03 -0.5949708E-01  0.8706115E+04  0.1218314E+00  0.4573161E-03  0.3123605E+01  0.9148684E+03  0.6322919E+00  0.6931413E-12  0.8611278E+00
  0.5000000E+01  0.6225332E+03  0.5549463E+00  0.2082172E-04 -0.2186720E+00  0.7992476E+04 -0.5668488E-02  0.1253941E-03  0.2975411E+01  0.1030341E+04  0.5264581E+00  0.3457655E-12 -0.2976445E+01
