VARIABLES="w (rad/s)"
"abs(F   1   1)" "angle(F   1   1)"
"abs(F   1   2)" "angle(F   1   2)"
"abs(F   1   3)" "angle(F   1   3)"
"abs(F   1   4)" "angle(F   1   4)"
"abs(F   1   5)" "angle(F   1   5)"
"abs(F   1   6)" "angle(F   1   6)"
Zone t="FKforce - beta =   0.000",I=    21,F=POINT
  0.3000000E+01  0.1117528E+03 -0.1570796E+01  0.6482157E-05 -0.3061768E+01  0.8495406E+03  0.3592245E-07  0.1674754E-03  0.3077487E+01  0.5986853E+01  0.1570837E+01  0.3061112E-12  0.3805064E+00
  0.3100000E+01  0.1187057E+03 -0.1570796E+01  0.7131889E-04  0.3129004E+01  0.8419408E+03 -0.3579362E-06  0.7027830E-04  0.3017448E+01  0.6551050E+01  0.1570810E+01  0.1895965E-12 -0.1797595E+01
  0.3200000E+01  0.1257987E+03 -0.1570796E+01  0.2553230E-04 -0.3132619E+01  0.8341496E+03 -0.2652431E-06  0.1678101E-04 -0.3936982E+00  0.7154640E+01  0.1570774E+01  0.1161645E-11  0.2881778E+01
  0.3300000E+01  0.1330229E+03 -0.1570796E+01  0.4080531E-04 -0.1953822E-01  0.8261646E+03 -0.2770415E-07  0.6986316E-04 -0.1365103E-01  0.7801331E+01  0.1570762E+01  0.1717104E-12 -0.4266275E+00
  0.3400000E+01  0.1403685E+03 -0.1570796E+01  0.7143958E-05 -0.3114734E+01  0.8180005E+03 -0.4197097E-07  0.1196840E-03  0.1338679E+00  0.8491474E+01  0.1570786E+01  0.2744572E-12 -0.2770701E+01
  0.3500000E+01  0.1478258E+03 -0.1570796E+01  0.1978363E-04  0.3120972E+01  0.8096630E+03  0.5182610E-07  0.1280876E-04 -0.2244084E+01  0.9225821E+01  0.1570771E+01  0.1620287E-12 -0.2231839E+01
  0.3600000E+01  0.1553846E+03 -0.1570796E+01  0.8180240E-04 -0.3126017E+01  0.8011537E+03  0.1428451E-07  0.1572343E-04 -0.2841421E+01  0.1001001E+02  0.1570789E+01  0.6369571E-12 -0.6747410E+00
  0.3700000E+01  0.1630347E+03 -0.1570796E+01  0.1597117E-04 -0.1461853E+00  0.7924948E+03  0.7027753E-06  0.1345898E-03  0.3099065E+01  0.1084049E+02  0.1570785E+01  0.3377881E-12  0.2753274E+01
  0.3800000E+01  0.1707649E+03 -0.1570796E+01  0.4051419E-04 -0.3123937E+01  0.7836838E+03 -0.3699413E-06  0.5236871E-04  0.3051934E+00  0.1172270E+02  0.1570800E+01  0.4275082E-12  0.1196463E+01
  0.3900000E+01  0.1785645E+03 -0.1570796E+01  0.1350462E-03  0.3136655E+01  0.7747382E+03 -0.8567504E-06  0.5049931E-04  0.8745409E-01  0.1265593E+02  0.1570773E+01  0.1179073E-11  0.2873226E+01
  0.4000000E+01  0.1864223E+03 -0.1570796E+01  0.1066287E-03 -0.3127897E+01  0.7656663E+03  0.1071171E-05  0.5324897E-04  0.1369897E+00  0.1364163E+02  0.1570781E+01  0.2864289E-12  0.1695151E+01
  0.4100000E+01  0.1943269E+03 -0.1570796E+01  0.7653928E-04 -0.9126055E-02  0.7564828E+03 -0.7664866E-06  0.3670431E-04 -0.2868646E+01  0.1467921E+02  0.1570778E+01  0.3510541E-12 -0.9434881E+00
  0.4200000E+01  0.2022665E+03 -0.1570796E+01  0.3960467E-04 -0.3072591E+01  0.7471948E+03  0.3216376E-06  0.5456674E-04  0.8178443E+00  0.1577070E+02  0.1570796E+01  0.2333741E-11 -0.3019504E+01
  0.4300000E+01  0.2102296E+03 -0.1570796E+01  0.1828564E-03 -0.3137070E+01  0.7378189E+03 -0.5687259E-07  0.3721240E-04 -0.3109552E+01  0.1691540E+02  0.1570782E+01  0.4875897E-12 -0.3263588E+00
  0.4400000E+01  0.2182042E+03 -0.1570796E+01  0.4924148E-04  0.3095920E+01  0.7283625E+03  0.4765998E-06  0.2571952E-03 -0.3059560E-01  0.1811190E+02  0.1570794E+01  0.1446177E-12  0.2056418E+01
  0.4500000E+01  0.2261784E+03 -0.1570796E+01  0.3937206E-04 -0.3088677E+01  0.7188447E+03 -0.2653353E-07  0.1224147E-03 -0.3085081E+01  0.1936142E+02  0.1570793E+01  0.1068771E-12  0.1945130E+01
  0.4600000E+01  0.2341402E+03 -0.1570796E+01  0.1175415E-03 -0.3129311E+01  0.7092747E+03  0.0000000E+00  0.7725259E-04  0.1082289E+00  0.2066039E+02  0.1570794E+01  0.1061566E-11 -0.2433553E+00
  0.4700000E+01  0.2420775E+03 -0.1570796E+01  0.3483775E-05 -0.1551391E+00  0.6996679E+03  0.6542585E-07  0.7237600E-04  0.2939271E+01  0.2200838E+02  0.1570790E+01  0.8119194E-12 -0.3124089E+01
  0.4800000E+01  0.2499786E+03 -0.1570796E+01  0.1525950E-04 -0.1708988E-01  0.6900358E+03  0.9398043E-07  0.1300817E-04  0.3851862E+00  0.2340204E+02  0.1570798E+01  0.1936845E-12 -0.1265723E+01
  0.4900000E+01  0.2578316E+03 -0.1570796E+01  0.4402148E-04 -0.3073332E+01  0.6803975E+03 -0.5101980E-06  0.2605287E-03  0.1423258E+00  0.2483712E+02  0.1570794E+01  0.2603499E-12  0.2764252E+00
  0.5000000E+01  0.2656247E+03 -0.1570796E+01  0.9957529E-04  0.3136935E+01  0.6707574E+03 -0.6540221E-06  0.2610754E-04  0.1563448E+01  0.2630943E+02  0.1570792E+01  0.1370814E-11  0.2836234E+01
