 VARIABLES="Time (s)"
"AddedMass    1" "IRF    1"
"AddedMass    2" "IRF    2"
"AddedMass    3" "IRF    3"
"AddedMass    4" "IRF    4"
"AddedMass    5" "IRF    5"
"AddedMass    6" "IRF    6"
Zone t="DoF    1",I=   100,F=POINT
  0.0000000E+00 -0.1962175E+02  0.9014469E+01  0.1528682E-07 -0.1452574E-07  0.1184888E-02 -0.1139388E-01  0.2614119E-07  0.2501299E-08 -0.2604705E+02  0.1402565E+02  0.6805013E-14 -0.2116402E-14
  0.1000000E+00 -0.1962175E+02  0.8175844E+01  0.1528682E-07 -0.1305002E-07  0.1184888E-02 -0.1051120E-01  0.2614119E-07  0.1902226E-08 -0.2604705E+02  0.1273492E+02  0.6805013E-14 -0.1926448E-14
  0.2000000E+00 -0.1962175E+02  0.5823572E+01  0.1528682E-07 -0.8942068E-08  0.1184888E-02 -0.8022366E-02  0.2614119E-07  0.2766311E-09 -0.2604705E+02  0.9111906E+01  0.6805013E-14 -0.1390265E-14
  0.3000000E+00 -0.1962175E+02  0.2415346E+01  0.1528682E-07 -0.3087953E-08  0.1184888E-02 -0.4372939E-02  0.2614119E-07 -0.1902926E-08 -0.2604705E+02  0.3854181E+01  0.6805013E-14 -0.6029872E-15
  0.4000000E+00 -0.1962175E+02 -0.1389491E+01  0.1528682E-07  0.3257882E-08  0.1184888E-02 -0.2052094E-03  0.2614119E-07 -0.3980080E-08 -0.2604705E+02 -0.2031795E+01  0.6805013E-14  0.2954714E-15
  0.5000000E+00 -0.1962175E+02 -0.4862505E+01  0.1528682E-07  0.8752491E-08  0.1184888E-02  0.3769326E-02  0.2614119E-07 -0.5279601E-08 -0.2604705E+02 -0.7431005E+01  0.6805013E-14  0.1145011E-14
  0.6000000E+00 -0.1962175E+02 -0.7351391E+01  0.1528682E-07  0.1226183E-07  0.1184888E-02  0.6908229E-02  0.2614119E-07 -0.5281773E-08 -0.2604705E+02 -0.1133993E+02  0.6805013E-14  0.1793592E-14
  0.7000000E+00 -0.1962175E+02 -0.8407970E+01  0.1528682E-07  0.1310810E-07  0.1184888E-02  0.8757767E-02  0.2614119E-07 -0.3765116E-08 -0.2604705E+02 -0.1306150E+02  0.6805013E-14  0.2124225E-14
  0.8000000E+00 -0.1962175E+02 -0.7872992E+01  0.1528682E-07  0.1121127E-07  0.1184888E-02  0.9129363E-02  0.2614119E-07 -0.8828931E-09 -0.2604705E+02 -0.1233566E+02  0.6805013E-14  0.2075950E-14
  0.9000000E+00 -0.1962175E+02 -0.5901016E+01  0.1528682E-07  0.7093799E-08  0.1184888E-02  0.8118150E-02  0.2614119E-07  0.2846770E-08 -0.2604705E+02 -0.9380155E+01  0.6805013E-14  0.1655073E-14
  0.1000000E+01 -0.1962175E+02 -0.2921400E+01  0.1528682E-07  0.1749139E-08  0.1184888E-02  0.6062109E-02  0.2614119E-07  0.6638059E-08 -0.2604705E+02 -0.4834968E+01  0.6805013E-14  0.9345373E-15
  0.1100000E+01 -0.1962175E+02  0.4552729E+00  0.1528682E-07 -0.3594012E-08  0.1184888E-02  0.3453271E-02  0.2614119E-07  0.9603144E-08 -0.2604705E+02  0.3763561E+00  0.6805013E-14  0.4142146E-16
  0.1200000E+01 -0.1962175E+02  0.3564818E+01  0.1528682E-07 -0.7756062E-08  0.1184888E-02  0.8227727E-03  0.2614119E-07  0.1095126E-07 -0.2604705E+02  0.5238134E+01  0.6805013E-14 -0.8653751E-15
  0.1300000E+01 -0.1962175E+02  0.5823994E+01  0.1528682E-07 -0.9873296E-08  0.1184888E-02 -0.1373557E-02  0.2614119E-07  0.1017773E-07 -0.2604705E+02  0.8846458E+01  0.6805013E-14 -0.1623409E-14
  0.1400000E+01 -0.1962175E+02  0.6844015E+01  0.1528682E-07 -0.9585828E-08  0.1184888E-02 -0.2843506E-02  0.2614119E-07  0.7199821E-08 -0.2604705E+02  0.1058356E+02  0.6805013E-14 -0.2095913E-14
  0.1500000E+01 -0.1962175E+02  0.6500307E+01  0.1528682E-07 -0.7104476E-08  0.1184888E-02 -0.3502258E-02  0.2614119E-07  0.2406941E-08 -0.2604705E+02  0.1022798E+02  0.6805013E-14 -0.2196712E-14
  0.1600000E+01 -0.1962175E+02  0.4945471E+01  0.1528682E-07 -0.3143271E-08  0.1184888E-02 -0.3464210E-02  0.2614119E-07 -0.3389850E-08 -0.2604705E+02  0.7980233E+01  0.6805013E-14 -0.1906230E-14
  0.1700000E+01 -0.1962175E+02  0.2564867E+01  0.1528682E-07  0.1264317E-08  0.1184888E-02 -0.2987938E-02  0.2614119E-07 -0.9102648E-08 -0.2604705E+02  0.4401710E+01  0.6805013E-14 -0.1275540E-14
  0.1800000E+01 -0.1962175E+02 -0.1137928E+00  0.1528682E-07  0.5020086E-08  0.1184888E-02 -0.2390260E-02  0.2614119E-07 -0.1357850E-07 -0.2604705E+02  0.2829238E+00  0.6805013E-14 -0.4175387E-15
  0.1900000E+01 -0.1962175E+02 -0.2536078E+01  0.1528682E-07  0.7225528E-08  0.1184888E-02 -0.1952197E-02  0.2614119E-07 -0.1583586E-07 -0.2604705E+02 -0.3528817E+01  0.6805013E-14  0.5133203E-15
  0.2000000E+01 -0.1962175E+02 -0.4236400E+01  0.1528682E-07  0.7393034E-08  0.1184888E-02 -0.1840737E-02  0.2614119E-07 -0.1527649E-07 -0.2604705E+02 -0.6304802E+01  0.6805013E-14  0.1349125E-14
  0.2100000E+01 -0.1962175E+02 -0.4929127E+01  0.1528682E-07  0.5554386E-08  0.1184888E-02 -0.2065748E-02  0.2614119E-07 -0.1182714E-07 -0.2604705E+02 -0.7576636E+01  0.6805013E-14  0.1939313E-14
  0.2200000E+01 -0.1962175E+02 -0.4557134E+01  0.1528682E-07  0.2242073E-08  0.1184888E-02 -0.2482169E-02  0.2614119E-07 -0.5979254E-08 -0.2604705E+02 -0.7216317E+01  0.6805013E-14  0.2178466E-14
  0.2300000E+01 -0.1962175E+02 -0.3289433E+01  0.1528682E-07 -0.1650577E-08  0.1184888E-02 -0.2835998E-02  0.2614119E-07  0.1284995E-08 -0.2604705E+02 -0.5440804E+01  0.6805013E-14  0.2025857E-14
  0.2400000E+01 -0.1962175E+02 -0.1470870E+01  0.1528682E-07 -0.5095496E-08  0.1184888E-02 -0.2841747E-02  0.2614119E-07  0.8668380E-08 -0.2604705E+02 -0.2743890E+01  0.6805013E-14  0.1512946E-14
  0.2500000E+01 -0.1962175E+02  0.4629337E+00  0.1528682E-07 -0.7186605E-08  0.1184888E-02 -0.2270971E-02  0.2614119E-07  0.1480261E-07 -0.2604705E+02  0.2263533E+00  0.6805013E-14  0.7373741E-15
  0.2600000E+01 -0.1962175E+02  0.2085280E+01  0.1528682E-07 -0.7364970E-08  0.1184888E-02 -0.1028799E-02  0.2614119E-07  0.1851282E-07 -0.2604705E+02  0.2815627E+01  0.6805013E-14 -0.1555615E-15
  0.2700000E+01 -0.1962175E+02  0.3070317E+01  0.1528682E-07 -0.5557642E-08  0.1184888E-02  0.8017241E-03  0.2614119E-07  0.1904917E-07 -0.2604705E+02  0.4503733E+01  0.6805013E-14 -0.1000406E-14
  0.2800000E+01 -0.1962175E+02  0.3257554E+01  0.1528682E-07 -0.2196539E-08  0.1184888E-02  0.2960061E-02  0.2614119E-07  0.1623899E-07 -0.2604705E+02  0.5007441E+01  0.6805013E-14 -0.1642836E-14
  0.2900000E+01 -0.1962175E+02  0.2676185E+01  0.1528682E-07  0.1887022E-08  0.1184888E-02  0.5054659E-02  0.2614119E-07  0.1052768E-07 -0.2604705E+02  0.4325530E+01  0.6805013E-14 -0.1968694E-14
  0.3000000E+01 -0.1962175E+02  0.1525977E+01  0.1528682E-07  0.5666754E-08  0.1184888E-02  0.6645792E-02  0.2614119E-07  0.2899980E-08 -0.2604705E+02  0.2719438E+01  0.6805013E-14 -0.1925143E-14
  0.3100000E+01 -0.1962175E+02  0.1212291E+00  0.1528682E-07  0.8175231E-08  0.1184888E-02  0.7345747E-02  0.2614119E-07 -0.5303546E-08 -0.2604705E+02  0.6372944E+00  0.6805013E-14 -0.1529930E-14
  0.3200000E+01 -0.1962175E+02 -0.1187743E+01  0.1528682E-07  0.8745312E-08  0.1184888E-02  0.6912816E-02  0.2614119E-07 -0.1263785E-07 -0.2604705E+02 -0.1398781E+01  0.6805013E-14 -0.8669105E-15
  0.3300000E+01 -0.1962175E+02 -0.2096834E+01  0.1528682E-07  0.7180236E-08  0.1184888E-02  0.5316613E-02  0.2614119E-07 -0.1782320E-07 -0.2604705E+02 -0.2915100E+01  0.6805013E-14 -0.6884909E-16
  0.3400000E+01 -0.1962175E+02 -0.2415296E+01  0.1528682E-07  0.3810056E-08  0.1184888E-02  0.2758449E-02  0.2614119E-07 -0.1997985E-07 -0.2604705E+02 -0.3590743E+01  0.6805013E-14  0.7090571E-15
  0.3500000E+01 -0.1962175E+02 -0.2103302E+01  0.1528682E-07 -0.5804368E-09  0.1184888E-02 -0.3591338E-03  0.2614119E-07 -0.1878244E-07 -0.2604705E+02 -0.3321321E+01  0.6805013E-14  0.1319618E-14
  0.3600000E+01 -0.1962175E+02 -0.1272850E+01  0.1528682E-07 -0.4936544E-08  0.1184888E-02 -0.3507998E-02  0.2614119E-07 -0.1450590E-07 -0.2604705E+02 -0.2230067E+01  0.6805013E-14  0.1652049E-14
  0.3700000E+01 -0.1962175E+02 -0.1535021E+00  0.1528682E-07 -0.8187684E-08  0.1184888E-02 -0.6138967E-02  0.2614119E-07 -0.7956655E-08 -0.2604705E+02 -0.6263721E+00  0.6805013E-14  0.1652668E-14
  0.3800000E+01 -0.1962175E+02  0.9674911E+00  0.1528682E-07 -0.9510098E-08  0.1184888E-02 -0.7792550E-02  0.2614119E-07 -0.3064871E-09 -0.2604705E+02  0.1076096E+01  0.6805013E-14  0.1333959E-14
  0.3900000E+01 -0.1962175E+02  0.1815702E+01  0.1528682E-07 -0.8534429E-08  0.1184888E-02 -0.8191361E-02  0.2614119E-07  0.7134694E-08 -0.2604705E+02  0.2461030E+01  0.6805013E-14  0.7703647E-15
  0.4000000E+01 -0.1962175E+02  0.2193822E+01  0.1528682E-07 -0.5447066E-08  0.1184888E-02 -0.7294174E-02  0.2614119E-07  0.1316023E-07 -0.2604705E+02  0.3206646E+01  0.6805013E-14  0.8189164E-16
  0.4100000E+01 -0.1962175E+02  0.2025120E+01  0.1528682E-07 -0.9585054E-09  0.1184888E-02 -0.5300142E-02  0.2614119E-07  0.1687471E-07 -0.2604705E+02  0.3156362E+01  0.6805013E-14 -0.5909117E-15
  0.4200000E+01 -0.1962175E+02  0.1366719E+01  0.1528682E-07  0.3856358E-08  0.1184888E-02 -0.2602890E-02  0.2614119E-07  0.1783000E-07 -0.2604705E+02  0.2347888E+01  0.6805013E-14 -0.1115405E-14
  0.4300000E+01 -0.1962175E+02  0.3908543E+00  0.1528682E-07  0.7810327E-08  0.1184888E-02  0.2944028E-03  0.2614119E-07  0.1606792E-07 -0.2604705E+02  0.9959913E+00  0.6805013E-14 -0.1392921E-14
  0.4400000E+01 -0.1962175E+02 -0.6602959E+00  0.1528682E-07  0.9889907E-08  0.1184888E-02  0.2883570E-02  0.2614119E-07  0.1206854E-07 -0.2604705E+02 -0.5651187E+00  0.6805013E-14 -0.1377309E-14
  0.4500000E+01 -0.1962175E+02 -0.1534587E+01  0.1528682E-07  0.9507535E-08  0.1184888E-02  0.4752346E-02  0.2614119E-07  0.6622506E-08 -0.2604705E+02 -0.1964649E+01  0.6805013E-14 -0.1082327E-14
  0.4600000E+01 -0.1962175E+02 -0.2030059E+01  0.1528682E-07  0.6658602E-08  0.1184888E-02  0.5659735E-02  0.2614119E-07  0.6604386E-09 -0.2604705E+02 -0.2883098E+01  0.6805013E-14 -0.5768666E-15
  0.4700000E+01 -0.1962175E+02 -0.2041101E+01  0.1528682E-07  0.1943403E-08  0.1184888E-02  0.5570514E-02  0.2614119E-07 -0.4922315E-08 -0.2604705E+02 -0.3124561E+01  0.6805013E-14  0.3074173E-16
  0.4800000E+01 -0.1962175E+02 -0.1580226E+01  0.1528682E-07 -0.3554969E-08  0.1184888E-02  0.4643427E-02  0.2614119E-07 -0.9409019E-08 -0.2604705E+02 -0.2657334E+01  0.6805013E-14  0.6156863E-15
  0.4900000E+01 -0.1962175E+02 -0.7711676E+00  0.1528682E-07 -0.8512238E-08  0.1184888E-02  0.3178315E-02  0.2614119E-07 -0.1234869E-07 -0.2604705E+02 -0.1614723E+01  0.6805013E-14  0.1062096E-14
  0.5000000E+01 -0.1962175E+02  0.1841605E+00  0.1528682E-07 -0.1167007E-07  0.1184888E-02  0.1536717E-02  0.2614119E-07 -0.1357697E-07 -0.2604705E+02 -0.2574097E+00  0.6805013E-14  0.1285585E-14
  0.5100000E+01 -0.1962175E+02  0.1056137E+01  0.1528682E-07 -0.1213893E-07  0.1184888E-02  0.5576550E-04  0.2614119E-07 -0.1317805E-07 -0.2604705E+02  0.1092240E+01  0.6805013E-14  0.1248583E-14
  0.5200000E+01 -0.1962175E+02  0.1642877E+01  0.1528682E-07 -0.9625261E-08  0.1184888E-02 -0.1023970E-02  0.2614119E-07 -0.1140790E-07 -0.2604705E+02  0.2127594E+01  0.6805013E-14  0.9656928E-15
  0.5300000E+01 -0.1962175E+02  0.1817309E+01  0.1528682E-07 -0.4528010E-08  0.1184888E-02 -0.1600670E-02  0.2614119E-07 -0.8605194E-08 -0.2604705E+02  0.2628306E+01  0.6805013E-14  0.4984501E-15
  0.5400000E+01 -0.1962175E+02  0.1554999E+01  0.1528682E-07  0.2122712E-08  0.1184888E-02 -0.1715298E-02  0.2614119E-07 -0.5116509E-08 -0.2604705E+02  0.2507875E+01  0.6805013E-14 -0.5881720E-16
  0.5500000E+01 -0.1962175E+02  0.9366461E+00  0.1528682E-07  0.8875111E-08  0.1184888E-02 -0.1519124E-02  0.2614119E-07 -0.1253527E-08 -0.2604705E+02  0.1827947E+01  0.6805013E-14 -0.5987150E-15
  0.5600000E+01 -0.1962175E+02  0.1254110E+00  0.1528682E-07  0.1417027E-07  0.1184888E-02 -0.1215686E-02  0.2614119E-07  0.2712125E-08 -0.2604705E+02  0.7773655E+00  0.6805013E-14 -0.1021865E-14
  0.5700000E+01 -0.1962175E+02 -0.6747997E+00  0.1528682E-07  0.1669342E-07  0.1184888E-02 -0.9935190E-03  0.2614119E-07  0.6524255E-08 -0.2604705E+02 -0.3777357E+00  0.6805013E-14 -0.1255001E-14
  0.5800000E+01 -0.1962175E+02 -0.1269614E+01  0.1528682E-07  0.1568304E-07  0.1184888E-02 -0.9685225E-03  0.2614119E-07  0.9905697E-08 -0.2604705E+02 -0.1359949E+01  0.6805013E-14 -0.1262838E-14
  0.5900000E+01 -0.1962175E+02 -0.1520827E+01  0.1528682E-07  0.1112704E-07  0.1184888E-02 -0.1150928E-02  0.2614119E-07  0.1253323E-07 -0.2604705E+02 -0.1946609E+01  0.6805013E-14 -0.1051865E-14
  0.6000000E+01 -0.1962175E+02 -0.1378235E+01  0.1528682E-07  0.3798377E-08  0.1184888E-02 -0.1445638E-02  0.2614119E-07  0.1404288E-07 -0.2604705E+02 -0.2020128E+01  0.6805013E-14 -0.6660977E-15
  0.6100000E+01 -0.1962175E+02 -0.8894864E+00  0.1528682E-07 -0.4882425E-08  0.1184888E-02 -0.1684995E-02  0.2614119E-07  0.1407572E-07 -0.2604705E+02 -0.1591441E+01  0.6805013E-14 -0.1763794E-15
  0.6200000E+01 -0.1962175E+02 -0.1860379E+00  0.1528682E-07 -0.1313213E-07  0.1184888E-02 -0.1684875E-02  0.2614119E-07  0.1236007E-07 -0.2604705E+02 -0.7919430E+00  0.6805013E-14  0.3339864E-15
  0.6300000E+01 -0.1962175E+02  0.5507839E+00  0.1528682E-07 -0.1917825E-07  0.1184888E-02 -0.1308141E-02  0.2614119E-07  0.8811905E-08 -0.2604705E+02  0.1629446E+00  0.6805013E-14  0.7841302E-15
  0.6400000E+01 -0.1962175E+02  0.1135111E+01  0.1528682E-07 -0.2164146E-07  0.1184888E-02 -0.5174591E-03  0.2614119E-07  0.3624667E-08 -0.2604705E+02  0.1029002E+01  0.6805013E-14  0.1108253E-14
  0.6500000E+01 -0.1962175E+02  0.1422044E+01  0.1528682E-07 -0.1984385E-07  0.1184888E-02  0.5978479E-03  0.2614119E-07 -0.2682562E-08 -0.2604705E+02  0.1593344E+01  0.6805013E-14  0.1263983E-14
  0.6600000E+01 -0.1962175E+02  0.1342373E+01  0.1528682E-07 -0.1397460E-07  0.1184888E-02  0.1830169E-02  0.2614119E-07 -0.9284381E-08 -0.2604705E+02  0.1724923E+01  0.6805013E-14  0.1235812E-14
  0.6700000E+01 -0.1962175E+02  0.9183648E+00  0.1528682E-07 -0.5074392E-08  0.1184888E-02  0.2896840E-02  0.2614119E-07 -0.1514712E-07 -0.2604705E+02  0.1403686E+01  0.6805013E-14  0.1033959E-14
  0.6800000E+01 -0.1962175E+02  0.2571039E+00  0.1528682E-07  0.5160634E-08  0.1184888E-02  0.3508774E-02  0.2614119E-07 -0.1919710E-07 -0.2604705E+02  0.7220135E+00  0.6805013E-14  0.6899046E-15
  0.6900000E+01 -0.1962175E+02 -0.4766580E+00  0.1528682E-07  0.1471773E-07  0.1184888E-02  0.3447991E-02  0.2614119E-07 -0.2053212E-07 -0.2604705E+02 -0.1410530E+00  0.6805013E-14  0.2502510E-15
  0.7000000E+01 -0.1962175E+02 -0.1101252E+01  0.1528682E-07  0.2167751E-07  0.1184888E-02  0.2633892E-02  0.2614119E-07 -0.1863116E-07 -0.2604705E+02 -0.9657837E+00  0.6805013E-14 -0.2296510E-15
  0.7100000E+01 -0.1962175E+02 -0.1462520E+01  0.1528682E-07  0.2461061E-07  0.1184888E-02  0.1160369E-02  0.2614119E-07 -0.1351427E-07 -0.2604705E+02 -0.1546424E+01  0.6805013E-14 -0.6914654E-15
  0.7200000E+01 -0.1962175E+02 -0.1471050E+01  0.1528682E-07  0.2287640E-07  0.1184888E-02 -0.7081146E-03  0.2614119E-07 -0.5807386E-08 -0.2604705E+02 -0.1741011E+01  0.6805013E-14 -0.1078653E-14
  0.7300000E+01 -0.1962175E+02 -0.1123487E+01  0.1528682E-07  0.1676111E-07  0.1184888E-02 -0.2583445E-02  0.2614119E-07  0.3313989E-08 -0.2604705E+02 -0.1504686E+01  0.6805013E-14 -0.1340722E-14
  0.7400000E+01 -0.1962175E+02 -0.5027904E+00  0.1528682E-07  0.7425565E-08  0.1184888E-02 -0.4035425E-02  0.2614119E-07  0.1230521E-07 -0.2604705E+02 -0.8986572E+00  0.6805013E-14 -0.1437492E-14
  0.7500000E+01 -0.1962175E+02  0.2421949E+00  0.1528682E-07 -0.3327065E-08  0.1184888E-02 -0.4690309E-02  0.2614119E-07  0.1952877E-07 -0.2604705E+02 -0.7347249E-01  0.6805013E-14 -0.1343812E-14
  0.7600000E+01 -0.1962175E+02  0.9329811E+00  0.1528682E-07 -0.1341475E-07  0.1184888E-02 -0.4323853E-02  0.2614119E-07  0.2357620E-07 -0.2604705E+02  0.7690626E+00  0.6805013E-14 -0.1054579E-14
  0.7700000E+01 -0.1962175E+02  0.1404477E+01  0.1528682E-07 -0.2089615E-07  0.1184888E-02 -0.2926059E-02  0.2614119E-07  0.2356813E-07 -0.2604705E+02  0.1425531E+01  0.6805013E-14 -0.5893404E-15
  0.7800000E+01 -0.1962175E+02  0.1544569E+01  0.1528682E-07 -0.2435854E-07  0.1184888E-02 -0.7207401E-03  0.2614119E-07  0.1936603E-07 -0.2604705E+02  0.1740053E+01  0.6805013E-14  0.5071769E-17
  0.7900000E+01 -0.1962175E+02  0.1320735E+01  0.1528682E-07 -0.2319555E-07  0.1184888E-02  0.1867664E-02  0.2614119E-07  0.1164226E-07 -0.2604705E+02  0.1641095E+01  0.6805013E-14  0.6555123E-15
  0.8000000E+01 -0.1962175E+02  0.7875327E+00  0.1528682E-07 -0.1771738E-07  0.1184888E-02  0.4295035E-02  0.2614119E-07  0.1784083E-08 -0.2604705E+02  0.1157498E+01  0.6805013E-14  0.1268458E-14
  0.8100000E+01 -0.1962175E+02  0.7313345E-01  0.1528682E-07 -0.9073776E-08  0.1184888E-02  0.6011090E-02  0.2614119E-07 -0.8358268E-08 -0.2604705E+02  0.4099803E+00  0.6805013E-14  0.1741577E-14
  0.8200000E+01 -0.1962175E+02 -0.6515265E+00  0.1528682E-07  0.9913271E-09  0.1184888E-02  0.6580606E-02  0.2614119E-07 -0.1683285E-07 -0.2604705E+02 -0.4190880E+00  0.6805013E-14  0.1979887E-14
  0.8300000E+01 -0.1962175E+02 -0.1213752E+01  0.1528682E-07  0.1050164E-07  0.1184888E-02  0.5786259E-02  0.2614119E-07 -0.2198566E-07 -0.2604705E+02 -0.1130366E+01  0.6805013E-14  0.1914435E-14
  0.8400001E+01 -0.1962175E+02 -0.1480197E+01  0.1528682E-07  0.1764796E-07  0.1184888E-02  0.3688891E-02  0.2614119E-07 -0.2281110E-07 -0.2604705E+02 -0.1555470E+01  0.6805013E-14  0.1519705E-14
  0.8500000E+01 -0.1962175E+02 -0.1388560E+01  0.1528682E-07  0.2114539E-07  0.1184888E-02  0.6301099E-03  0.2614119E-07 -0.1917783E-07 -0.2604705E+02 -0.1596978E+01  0.6805013E-14  0.8258178E-15
  0.8600000E+01 -0.1962175E+02 -0.9621922E+00  0.1528682E-07  0.2047335E-07  0.1184888E-02 -0.2825768E-02  0.2614119E-07 -0.1187359E-07 -0.2604705E+02 -0.1250847E+01  0.6805013E-14 -0.7836785E-16
  0.8700000E+01 -0.1962175E+02 -0.3043459E+00  0.1528682E-07  0.1595426E-07  0.1184888E-02 -0.5999531E-02  0.2614119E-07 -0.2454112E-08 -0.2604705E+02 -0.6062828E+00  0.6805013E-14 -0.1053510E-14
  0.8800000E+01 -0.1962175E+02  0.4264902E+00  0.1528682E-07  0.8657937E-08  0.1184888E-02 -0.8234086E-02  0.2614119E-07  0.7078356E-08 -0.2604705E+02  0.1765754E+00  0.6805013E-14 -0.1929774E-14
  0.8900001E+01 -0.1962175E+02  0.1054291E+01  0.1528682E-07  0.1572998E-09  0.1184888E-02 -0.9031244E-02  0.2614119E-07  0.1470022E-07 -0.2604705E+02  0.9056574E+00  0.6805013E-14 -0.2535948E-14
  0.9000000E+01 -0.1962175E+02  0.1427255E+01  0.1528682E-07 -0.7809908E-08  0.1184888E-02 -0.8159896E-02  0.2614119E-07  0.1880560E-07 -0.2604705E+02  0.1403118E+01  0.6805013E-14 -0.2732926E-14
  0.9100000E+01 -0.1962175E+02  0.1453804E+01  0.1528682E-07 -0.1370085E-07  0.1184888E-02 -0.5711688E-02  0.2614119E-07  0.1856241E-07 -0.2604705E+02  0.1547703E+01  0.6805013E-14 -0.2444996E-14
  0.9200000E+01 -0.1962175E+02  0.1124336E+01  0.1528682E-07 -0.1647205E-07  0.1184888E-02 -0.2091790E-02  0.2614119E-07  0.1410290E-07 -0.2604705E+02  0.1303337E+01  0.6805013E-14 -0.1681984E-14
  0.9300000E+01 -0.1962175E+02  0.5136980E+00  0.1528682E-07 -0.1576991E-07  0.1184888E-02  0.2054873E-02  0.2614119E-07  0.6503591E-08 -0.2604705E+02  0.7273620E+00  0.6805013E-14 -0.5463789E-15
  0.9400001E+01 -0.1962175E+02 -0.2361126E+00  0.1528682E-07 -0.1196934E-07  0.1184888E-02  0.5966822E-02  0.2614119E-07 -0.2446241E-08 -0.2604705E+02 -0.4324959E-01  0.6805013E-14  0.7775872E-15
  0.9500000E+01 -0.1962175E+02 -0.9490014E+00  0.1528682E-07 -0.6060049E-08  0.1184888E-02  0.8914270E-02  0.2614119E-07 -0.1064107E-07 -0.2604705E+02 -0.8243608E+00  0.6805013E-14  0.2052753E-14
  0.9600000E+01 -0.1962175E+02 -0.1455781E+01  0.1528682E-07  0.5906494E-09  0.1184888E-02  0.1034230E-01  0.2614119E-07 -0.1613414E-07 -0.2604705E+02 -0.1427974E+01  0.6805013E-14  0.3031490E-14
  0.9700000E+01 -0.1962175E+02 -0.1633566E+01  0.1528682E-07  0.6543539E-08  0.1184888E-02  0.9979073E-02  0.2614119E-07 -0.1758512E-07 -0.2604705E+02 -0.1706227E+01  0.6805013E-14  0.3504031E-14
  0.9800000E+01 -0.1962175E+02 -0.1434517E+01  0.1528682E-07  0.1059452E-07  0.1184888E-02  0.7888332E-02  0.2614119E-07 -0.1457885E-07 -0.2604705E+02 -0.1585941E+01  0.6805013E-14  0.3343419E-14
  0.9900001E+01 -0.1962175E+02 -0.8972145E+00  0.1528682E-07  0.1201771E-07  0.1184888E-02  0.4455220E-02  0.2614119E-07 -0.7739555E-08 -0.2604705E+02 -0.1085715E+01  0.6805013E-14  0.2537198E-14
Zone t="DoF    2",I=   100,F=POINT
  0.0000000E+00  0.7661968E-09 -0.4549314E-07 -0.1962115E+02  0.9013552E+01  0.3809137E-05  0.1354303E-05  0.2604652E+02 -0.1402453E+02 -0.9425017E-07  0.3380258E-07 -0.5044744E-08  0.2186632E-08
  0.1000000E+00  0.7661968E-09 -0.4033650E-07 -0.1962115E+02  0.8175016E+01  0.3809137E-05  0.1127280E-05  0.2604652E+02 -0.1273394E+02 -0.9425017E-07  0.2964286E-07 -0.5044744E-08  0.1981631E-08
  0.2000000E+00  0.7661968E-09 -0.2603665E-07 -0.1962115E+02  0.5822994E+01  0.3809137E-05  0.5101138E-06  0.2604652E+02 -0.9111283E+01 -0.9425017E-07  0.1815772E-07 -0.5044744E-08  0.1406866E-08
  0.3000000E+00  0.7661968E-09 -0.5837483E-08 -0.1962115E+02  0.2415129E+01  0.3809137E-05 -0.3221748E-06  0.2604652E+02 -0.3854063E+01 -0.9425017E-07  0.2095377E-08 -0.5044744E-08  0.5748733E-09
  0.4000000E+00  0.7661968E-09  0.1568164E-07 -0.1962115E+02 -0.1389310E+01  0.3809137E-05 -0.1129336E-05  0.2604652E+02  0.2031377E+01 -0.9425017E-07 -0.1468894E-07 -0.5044744E-08 -0.3523563E-09
  0.5000000E+00  0.7661968E-09  0.3364726E-07 -0.1962115E+02 -0.4861969E+01  0.3809137E-05 -0.1669405E-05  0.2604652E+02  0.7430141E+01 -0.9425017E-07 -0.2814238E-07 -0.5044744E-08 -0.1196109E-08
  0.6000000E+00  0.7661968E-09  0.4399871E-07 -0.1962115E+02 -0.7350613E+01  0.3809137E-05 -0.1763792E-05  0.2604652E+02  0.1133882E+02 -0.9425017E-07 -0.3497358E-07 -0.5044744E-08 -0.1796766E-08
  0.7000000E+00  0.7661968E-09  0.4440799E-07 -0.1962115E+02 -0.8407108E+01  0.3809137E-05 -0.1347306E-05  0.2604652E+02  0.1306040E+02 -0.9425017E-07 -0.3343718E-07 -0.5044744E-08 -0.2045305E-08
  0.8000000E+00  0.7661968E-09  0.3480342E-07 -0.1962115E+02 -0.7872217E+01  0.3809137E-05 -0.4901021E-06  0.2604652E+02  0.1233482E+02 -0.9425017E-07 -0.2375914E-07 -0.5044744E-08 -0.1904064E-08
  0.9000000E+00  0.7661968E-09  0.1737891E-07 -0.1962115E+02 -0.5900477E+01  0.3809137E-05  0.6146762E-06  0.2604652E+02  0.9379779E+01 -0.9425017E-07 -0.8102035E-08 -0.5044744E-08 -0.1412656E-08
  0.1000000E+01  0.7661968E-09 -0.3911606E-08 -0.1962115E+02 -0.2921196E+01  0.3809137E-05  0.1695239E-05  0.2604652E+02  0.4835153E+01 -0.9425017E-07  0.9924502E-08 -0.5044744E-08 -0.6780783E-09
  0.1100000E+01  0.7661968E-09 -0.2425757E-07 -0.1962115E+02  0.4551164E+00  0.3809137E-05  0.2467206E-05  0.2604652E+02 -0.3756386E+00 -0.9425017E-07  0.2609622E-07 -0.5044744E-08  0.1486302E-09
  0.1200000E+01  0.7661968E-09 -0.3908547E-07 -0.1962115E+02  0.3564350E+01  0.3809137E-05  0.2705426E-05  0.2604652E+02 -0.5237036E+01 -0.9425017E-07  0.3655792E-07 -0.5044744E-08  0.9040459E-09
  0.1300000E+01  0.7661968E-09 -0.4509299E-07 -0.1962115E+02  0.5823322E+01  0.3809137E-05  0.2303859E-05  0.2604652E+02 -0.8845219E+01 -0.9425017E-07  0.3873027E-07 -0.5044744E-08  0.1445605E-08
  0.1400000E+01  0.7661968E-09 -0.4098841E-07 -0.1962115E+02  0.6843289E+01  0.3809137E-05  0.1308306E-05  0.2604652E+02 -0.1058245E+02 -0.9425017E-07  0.3192819E-07 -0.5044744E-08  0.1679493E-08
  0.1500000E+01  0.7661968E-09 -0.2776886E-07 -0.1962115E+02  0.6499677E+01  0.3809137E-05 -0.8694219E-07  0.2604652E+02 -0.1022727E+02 -0.9425017E-07  0.1754516E-07 -0.5044744E-08  0.1577576E-08
  0.1600000E+01  0.7661968E-09 -0.8476946E-08 -0.1962115E+02  0.4945063E+01  0.3809137E-05 -0.1578878E-05  0.2604652E+02 -0.7980083E+01 -0.9425017E-07 -0.1242932E-08 -0.5044744E-08  0.1180198E-08
  0.1700000E+01  0.7661968E-09  0.1250492E-07 -0.1962115E+02  0.2564754E+01  0.3809137E-05 -0.2823517E-05  0.2604652E+02 -0.4402174E+01 -0.9425017E-07 -0.2018962E-07 -0.5044744E-08  0.5847476E-09
  0.1800000E+01  0.7661968E-09  0.3045819E-07 -0.1962115E+02 -0.1136043E+00  0.3809137E-05 -0.3516145E-05  0.2604652E+02 -0.2839212E+00 -0.9425017E-07 -0.3494451E-07 -0.5044744E-08 -0.7707749E-10
  0.1900000E+01  0.7661968E-09  0.4139897E-07 -0.1962115E+02 -0.2535644E+01  0.3809137E-05 -0.3465203E-05  0.2604652E+02  0.3527488E+01 -0.9425017E-07 -0.4205384E-07 -0.5044744E-08 -0.6681217E-09
  0.2000000E+01  0.7661968E-09  0.4297122E-07 -0.1962115E+02 -0.4235828E+01  0.3809137E-05 -0.2642067E-05  0.2604652E+02  0.6303420E+01 -0.9425017E-07 -0.3976485E-07 -0.5044744E-08 -0.1074413E-08
  0.2100000E+01  0.7661968E-09  0.3496048E-07 -0.1962115E+02 -0.4928550E+01  0.3809137E-05 -0.1194167E-05  0.2604652E+02  0.7575494E+01 -0.9425017E-07 -0.2844794E-07 -0.5044744E-08 -0.1227539E-08
  0.2200000E+01  0.7661968E-09  0.1931543E-07 -0.1962115E+02 -0.4556678E+01  0.3809137E-05  0.5825964E-06  0.2604652E+02  0.7215667E+01 -0.9425017E-07 -0.1053648E-07 -0.5044744E-08 -0.1116298E-08
  0.2300000E+01  0.7661968E-09 -0.3231554E-09 -0.1962115E+02 -0.3289196E+01  0.3809137E-05  0.2306796E-05  0.2604652E+02  0.5440796E+01 -0.9425017E-07  0.1000563E-07 -0.5044744E-08 -0.7856225E-09
  0.2400000E+01  0.7661968E-09 -0.1947204E-07 -0.1962115E+02 -0.1470894E+01  0.3809137E-05  0.3595907E-05  0.2604652E+02  0.2744544E+01 -0.9425017E-07  0.2857005E-07 -0.5044744E-08 -0.3235826E-09
  0.2500000E+01  0.7661968E-09 -0.3383567E-07 -0.1962115E+02  0.4626638E+00  0.3809137E-05  0.4153164E-05  0.2604652E+02 -0.2251585E+00 -0.9425017E-07  0.4094459E-07 -0.5044744E-08  0.1601421E-09
  0.2600000E+01  0.7661968E-09 -0.4027919E-07 -0.1962115E+02  0.2084833E+01  0.3809137E-05  0.3836781E-05  0.2604652E+02 -0.2814124E+01 -0.9425017E-07  0.4427202E-07 -0.5044744E-08  0.5592753E-09
  0.2700000E+01  0.7661968E-09 -0.3752201E-07 -0.1962115E+02  0.3069800E+01  0.3809137E-05  0.2695319E-05  0.2604652E+02 -0.4502224E+01 -0.9425017E-07  0.3770909E-07 -0.5044744E-08  0.7938085E-09
  0.2800000E+01  0.7661968E-09 -0.2639759E-07 -0.1962115E+02  0.3257087E+01  0.3809137E-05  0.9604483E-06  0.2604652E+02 -0.5006228E+01 -0.9425017E-07  0.2263383E-07 -0.5044744E-08  0.8258458E-09
  0.2900000E+01  0.7661968E-09 -0.9625302E-08 -0.1962115E+02  0.2675872E+01  0.3809137E-05 -0.1001809E-05  0.2604652E+02 -0.4324861E+01 -0.9425017E-07  0.2352295E-08 -0.5044744E-08  0.6652759E-09
  0.3000000E+01  0.7661968E-09  0.8845685E-08 -0.1962115E+02  0.1525885E+01  0.3809137E-05 -0.2770784E-05  0.2604652E+02 -0.2719449E+01 -0.9425017E-07 -0.1863165E-07 -0.5044744E-08  0.3645426E-09
  0.3100000E+01  0.7661968E-09  0.2476393E-07 -0.1962115E+02  0.1213765E+00  0.3809137E-05 -0.3964079E-05  0.2604652E+02 -0.6379830E+00 -0.9425017E-07 -0.3562121E-07 -0.5044744E-08  0.4213616E-11
  0.3200000E+01  0.7661968E-09  0.3455658E-07 -0.1962115E+02 -0.1187393E+01  0.3809137E-05 -0.4322648E-05  0.2604652E+02  0.1397549E+01 -0.9425017E-07 -0.4477962E-07 -0.5044744E-08 -0.3269625E-09
  0.3300000E+01  0.7661968E-09  0.3613738E-07 -0.1962115E+02 -0.2096362E+01  0.3809137E-05 -0.3768773E-05  0.2604652E+02  0.2913568E+01 -0.9425017E-07 -0.4399575E-07 -0.5044744E-08 -0.5527683E-09
  0.3400000E+01  0.7661968E-09  0.2935749E-07 -0.1962115E+02 -0.2414806E+01  0.3809137E-05 -0.2423683E-05  0.2604652E+02  0.3589208E+01 -0.9425017E-07 -0.3336635E-07 -0.5044744E-08 -0.6262807E-09
  0.3500000E+01  0.7661968E-09  0.1600111E-07 -0.1962115E+02 -0.2102902E+01  0.3809137E-05 -0.5807200E-06  0.2604652E+02  0.3320080E+01 -0.9425017E-07 -0.1518597E-07 -0.5044744E-08 -0.5390676E-09
  0.3600000E+01  0.7661968E-09 -0.6663638E-09 -0.1962115E+02 -0.1272625E+01  0.3809137E-05  0.1359922E-05  0.2604652E+02  0.2229350E+01 -0.9425017E-07  0.6554136E-08 -0.5044744E-08 -0.3210922E-09
  0.3700000E+01  0.7661968E-09 -0.1668522E-07 -0.1962115E+02 -0.1534989E+00  0.3809137E-05  0.2980117E-05  0.2604652E+02  0.6263019E+00 -0.9425017E-07  0.2704706E-07 -0.5044744E-08 -0.3176178E-10
  0.3800000E+01  0.7661968E-09 -0.2833595E-07 -0.1962115E+02  0.9672766E+00  0.3809137E-05  0.3936332E-05  0.2604652E+02 -0.1075525E+01 -0.9425017E-07  0.4173522E-07 -0.5044744E-08  0.2554177E-09
  0.3900000E+01  0.7661968E-09 -0.3300104E-07 -0.1962115E+02  0.1815319E+01  0.3809137E-05  0.4034799E-05  0.2604652E+02 -0.2459950E+01 -0.9425017E-07  0.4732209E-07 -0.5044744E-08  0.4707665E-09
  0.4000000E+01  0.7661968E-09 -0.2975482E-07 -0.1962115E+02  0.2193356E+01  0.3809137E-05  0.3272550E-05  0.2604652E+02 -0.3205281E+01 -0.9425017E-07  0.4250539E-07 -0.5044744E-08  0.5646711E-09
  0.4100000E+01  0.7661968E-09 -0.1954791E-07 -0.1962115E+02  0.2024671E+01  0.3809137E-05  0.1835337E-05  0.2604652E+02 -0.3154982E+01 -0.9425017E-07  0.2827007E-07 -0.5044744E-08  0.5184574E-09
  0.4200000E+01  0.7661968E-09 -0.4949076E-08 -0.1962115E+02  0.1366379E+01  0.3809137E-05  0.5328888E-07  0.2604652E+02 -0.2346753E+01 -0.9425017E-07  0.7675661E-08 -0.5044744E-08  0.3475635E-09
  0.4300000E+01  0.7661968E-09  0.1048784E-07 -0.1962115E+02  0.3906904E+00  0.3809137E-05 -0.1675144E-05  0.2604652E+02 -0.9953011E+00 -0.9425017E-07 -0.1481264E-07 -0.5044744E-08  0.9659284E-10
  0.4400000E+01  0.7661968E-09  0.2307900E-07 -0.1962115E+02 -0.6602553E+00  0.3809137E-05 -0.2973449E-05  0.2604652E+02  0.5652631E+00 -0.9425017E-07 -0.3430200E-07 -0.5044744E-08 -0.1723084E-09
  0.4500000E+01  0.7661968E-09  0.2988227E-07 -0.1962115E+02 -0.1534358E+01  0.3809137E-05 -0.3570756E-05  0.2604652E+02  0.1964259E+01 -0.9425017E-07 -0.4654110E-07 -0.5044744E-08 -0.3947711E-09
  0.4600000E+01  0.7661968E-09  0.2938126E-07 -0.1962115E+02 -0.2029697E+01  0.3809137E-05 -0.3360141E-05  0.2604652E+02  0.2882290E+01 -0.9425017E-07 -0.4884634E-07 -0.5044744E-08 -0.5195014E-09
  0.4700000E+01  0.7661968E-09  0.2182271E-07 -0.1962115E+02 -0.2040686E+01  0.3809137E-05 -0.2418686E-05  0.2604652E+02  0.3123523E+01 -0.9425017E-07 -0.4068197E-07 -0.5044744E-08 -0.5199687E-09
  0.4800000E+01  0.7661968E-09  0.9132049E-08 -0.1962115E+02 -0.1579848E+01  0.3809137E-05 -0.9853712E-06  0.2604652E+02  0.2656285E+01 -0.9425017E-07 -0.2377094E-07 -0.5044744E-08 -0.3998573E-09
  0.4900000E+01  0.7661968E-09 -0.5567979E-08 -0.1962115E+02 -0.7709028E+00  0.3809137E-05  0.5974786E-06  0.2604652E+02  0.1613868E+01 -0.9425017E-07 -0.1713390E-08 -0.5044744E-08 -0.1912094E-09
  0.5000000E+01  0.7661968E-09 -0.1871656E-07 -0.1962115E+02  0.1842622E+00  0.3809137E-05  0.1964919E-05  0.2604652E+02  0.2568965E+00 -0.9425017E-07  0.2079735E-07 -0.5044744E-08  0.5407104E-10