VARIABLES="w (rad/s)"
"A   1   1" "B   1   1"
"A   1   2" "B   1   2"
"A   1   3" "B   1   3"
"A   1   4" "B   1   4"
"A   1   5" "B   1   5"
"A   1   6" "B   1   6"
Zone t="Motion of body    1 in DoF   1",I=    21,F=POINT
  0.3000000E+01 -0.2277466E+02  0.1901132E+01  0.4885563E-07 -0.2255547E-08  0.5150894E-02 -0.7463463E-01 -0.1620501E-06 -0.3527384E-07 -0.2713815E+02  0.2737754E+01 -0.7438494E-14  0.5162537E-14
  0.3100000E+01 -0.2069224E+02  0.1655462E+01 -0.1815328E-06 -0.2342131E-07  0.2586457E-02 -0.2739443E-01  0.4205973E-07 -0.2793968E-08 -0.2732598E+02  0.2855925E+01 -0.1661753E-13  0.8881784E-15
  0.3200000E+01 -0.2236798E+02  0.2438713E+01  0.2193156E-06  0.2819434E-08  0.1572371E-02  0.4483221E-01  0.1897570E-06  0.6635673E-07 -0.2749613E+02  0.3493460E+01  0.6661338E-14 -0.4329870E-14
  0.3300000E+01 -0.2236062E+02  0.2697942E+01 -0.2853057E-07 -0.1816079E-07  0.2101335E-02 -0.4710167E-01  0.2291618E-06 -0.1292210E-07 -0.3035874E+02  0.5201921E+01  0.5046469E-14  0.3774758E-14
  0.3400000E+01 -0.2045749E+02  0.2227185E+01 -0.3142422E-06  0.1477383E-07  0.7575470E-02 -0.2197937E-01 -0.2410482E-06 -0.5820766E-08 -0.2563373E+02  0.3238179E+01 -0.5004167E-14  0.2220446E-14
  0.3500000E+01 -0.1936718E+02  0.3233063E+01  0.7983181E-07 -0.3360401E-07 -0.3872020E-02 -0.2427074E-01  0.1128231E-06 -0.3696186E-07 -0.2614900E+02  0.5936148E+01  0.2386980E-13 -0.8104628E-14
  0.3600000E+01 -0.2097143E+02  0.4445676E+01 -0.8139170E-07  0.5130278E-07  0.2977285E-02  0.2867866E-01 -0.2007518E-06 -0.6554183E-07 -0.2826177E+02  0.7462389E+01 -0.1844204E-13  0.7271961E-14
  0.3700000E+01 -0.2122434E+02  0.5475595E+01  0.4274291E-06  0.1698209E-07  0.2605432E-02 -0.3655744E-01  0.2315721E-06 -0.3259629E-08 -0.2729088E+02  0.7924880E+01  0.4581920E-13 -0.8770762E-14
  0.3800000E+01 -0.1963479E+02  0.5501250E+01  0.8866329E-07 -0.2743764E-07 -0.4764356E-02  0.1536915E-02  0.6176139E-07 -0.8824281E-07 -0.2550704E+02  0.8903594E+01 -0.2571043E-14 -0.6827872E-14
  0.3900000E+01 -0.1808182E+02  0.5603459E+01  0.8519586E-07 -0.3398600E-07  0.7742490E-03 -0.9729096E-02 -0.3018440E-06 -0.3553578E-07 -0.2493110E+02  0.1027141E+02 -0.4270089E-13  0.1337819E-13
  0.4000000E+01 -0.1872085E+02  0.6065157E+01 -0.8810457E-07 -0.4345202E-07 -0.8162856E-04  0.5850974E-01 -0.8475035E-07  0.3282912E-07 -0.2499002E+02  0.9187083E+01  0.2170486E-13  0.4996004E-15
  0.4100000E+01 -0.1879091E+02  0.5403231E+01  0.5538246E-07  0.2437446E-07  0.1205119E-02  0.2070445E-01  0.3334589E-06 -0.1818989E-07 -0.2454633E+02  0.7484935E+01  0.3051759E-13  0.6661338E-14
  0.4200000E+01 -0.1930963E+02  0.9897528E+01 -0.5208893E-07 -0.8821735E-07  0.1015411E-01 -0.9297176E-01 -0.4967054E-07  0.5902257E-07 -0.2564672E+02  0.1513560E+02  0.4914059E-13 -0.3358425E-13
  0.4300000E+01 -0.1831943E+02  0.1251492E+02  0.6720446E-07  0.1057160E-06 -0.2126638E-02  0.4049405E-02  0.1455462E-06  0.4563481E-07 -0.2478175E+02  0.2211368E+02  0.1092149E-13 -0.1032507E-13
  0.4400000E+01 -0.1735792E+02  0.8048363E+01  0.9335054E-07 -0.2566958E-07 -0.9761073E-03  0.4238378E-01 -0.2675436E-06  0.7380731E-07 -0.2401353E+02  0.1203043E+02  0.4654736E-13  0.9103829E-14
  0.4500000E+01 -0.1725960E+02  0.5865164E+01 -0.3342575E-06  0.2297747E-07  0.3884739E-02 -0.3186062E-01  0.1307991E-06 -0.2316665E-07 -0.2430641E+02  0.8493442E+01 -0.2195775E-14 -0.5884182E-14
  0.4600000E+01 -0.1694600E+02  0.9867148E+01  0.5638551E-07  0.1109865E-06 -0.2582877E-02  0.2162642E-01  0.9556179E-07 -0.2630986E-07 -0.2346736E+02  0.1845859E+02  0.1887379E-13  0.6390721E-14
  0.4700000E+01 -0.1728557E+02  0.1303039E+02 -0.2938558E-07 -0.1169319E-06  0.4485567E-03 -0.1989456E-01  0.2821709E-06 -0.1001172E-06 -0.2269008E+02  0.2433526E+02 -0.4256642E-13 -0.1554312E-14
  0.4800000E+01 -0.1723249E+02  0.1469912E+02  0.6075424E-08 -0.1421577E-06  0.3445148E-02 -0.2934188E-03  0.7295360E-07  0.1429580E-06 -0.2225574E+02  0.1861105E+02  0.3372302E-13 -0.2120526E-13
  0.4900000E+01 -0.1635967E+02  0.1615159E+02  0.1470634E-06  0.3499190E-07  0.1946347E-02 -0.3575134E-01  0.1596553E-07  0.1667067E-06 -0.2182214E+02  0.1625257E+02  0.8700523E-14  0.1021405E-13
  0.5000000E+01 -0.1621643E+02  0.1165483E+02  0.2953457E-07 -0.1178560E-06 -0.7369518E-03 -0.3234875E-01 -0.5811453E-07 -0.2230518E-06 -0.2357801E+02  0.2310971E+02 -0.2349232E-13  0.8715251E-14
Zone t="Motion of body    1 in DoF   2",I=    21,F=POINT
  0.3000000E+01  0.7738223E-07  0.1178341E-07 -0.2277429E+02  0.1901093E+01  0.6362796E-05 -0.2106652E-05  0.2713762E+02 -0.2738235E+01 -0.3725290E-07 -0.1734588E-07 -0.5865852E-08  0.4370764E-09
  0.3100000E+01 -0.9499585E-07 -0.2000888E-08 -0.2069159E+02  0.1654505E+01  0.1976687E-04  0.2770335E-05  0.2732508E+02 -0.2854256E+01 -0.2427447E-06  0.7799827E-08 -0.5321708E-08  0.3589395E-09
  0.3200000E+01  0.5796210E-07  0.2750312E-08 -0.2236542E+02  0.2437890E+01 -0.1212931E-04 -0.4312955E-05  0.2749305E+02 -0.3491644E+01 -0.8905772E-07 -0.1536682E-07 -0.5786923E-08  0.5600603E-09
  0.3300000E+01  0.5374948E-07 -0.5464244E-08 -0.2236077E+02  0.2698361E+01 -0.3895976E-04  0.4167669E-05  0.3035914E+02 -0.5202670E+01 -0.5418604E-07 -0.4889444E-08 -0.5779574E-08  0.6169643E-09
  0.3400000E+01 -0.1876822E-07  0.1766239E-07 -0.2045729E+02  0.2229349E+01 -0.1689967E-04 -0.2369052E-05  0.2563422E+02 -0.3241831E+01 -0.1851688E-06 -0.2549496E-07 -0.5159061E-08  0.4689913E-09
  0.3500000E+01 -0.2199148E-06  0.2156594E-07 -0.1936640E+02  0.3231524E+01  0.1336528E-04  0.4025409E-05  0.2614790E+02 -0.5935842E+01  0.1170805E-07  0.2537854E-07 -0.4956618E-08  0.7465683E-09
  0.3600000E+01 -0.1841525E-06 -0.3632886E-07 -0.2097130E+02  0.4444892E+01  0.4134038E-05 -0.5944865E-05  0.2826136E+02 -0.7461922E+01 -0.2452483E-06  0.2793968E-08 -0.5352623E-08  0.1035182E-08
  0.3700000E+01  0.6629774E-07 -0.1680746E-07 -0.2122366E+02  0.5474372E+01 -0.9048428E-05 -0.4462316E-05  0.2729073E+02 -0.7924928E+01 -0.3856179E-06 -0.2497109E-07 -0.5475230E-08  0.1271467E-08
  0.3800000E+01  0.2272014E-06  0.1679291E-07 -0.1963507E+02  0.5501218E+01  0.2553686E-04  0.2854562E-05  0.2550788E+02 -0.8907205E+01  0.1480313E-06  0.4604226E-07 -0.5083963E-08  0.1301860E-08
  0.3900000E+01  0.1382768E-06  0.5047332E-07 -0.1808160E+02  0.5603350E+01  0.2800845E-04 -0.1413701E-04  0.2493093E+02 -0.1027020E+02  0.2598151E-06 -0.3579771E-08 -0.4680285E-08  0.1342495E-08
  0.4000000E+01  0.9216456E-07 -0.2673187E-07 -0.1872054E+02  0.6065628E+01  0.2728496E-04  0.1504202E-05  0.2499137E+02 -0.9190063E+01 -0.8754432E-07  0.9749783E-08 -0.4834770E-08  0.1433024E-08
  0.4100000E+01  0.8639224E-07 -0.2311572E-07 -0.1878997E+02  0.5403132E+01 -0.7474205E-05  0.2955552E-05  0.2454478E+02 -0.7484165E+01 -0.9358656E-07 -0.1235749E-06 -0.4794689E-08  0.1197821E-08
  0.4200000E+01  0.5784387E-07  0.1528679E-07 -0.1931011E+02  0.9898402E+01  0.5369740E-05 -0.2022833E-05  0.2564807E+02 -0.1513670E+02 -0.1445767E-06  0.4295725E-07 -0.4942554E-08  0.2432100E-08
  0.4300000E+01 -0.6534317E-07 -0.1073495E-06 -0.1831837E+02  0.1251237E+02  0.2290100E-04 -0.1943810E-04  0.2478123E+02 -0.2211005E+02 -0.6064426E-06 -0.1038425E-06 -0.4737948E-08  0.3123249E-08
  0.4400000E+01 -0.2956436E-06 -0.4819594E-07 -0.1735682E+02  0.8047132E+01 -0.7061118E-05  0.1121638E-04  0.2401287E+02 -0.1203028E+02 -0.7450581E-07 -0.1569279E-06 -0.4400682E-08  0.1718576E-08
  0.4500000E+01  0.7214678E-07  0.1031731E-07 -0.1725980E+02  0.5862507E+01  0.2356370E-04 -0.1101661E-04  0.2430678E+02 -0.8489195E+01  0.2657374E-06  0.4633330E-07 -0.4332974E-08  0.1297140E-08
  0.4600000E+01 -0.1784856E-06  0.6598248E-07 -0.1694505E+02  0.9866931E+01  0.9102666E-05  0.1143897E-04  0.2346568E+02 -0.1845662E+02 -0.1384836E-06  0.4142057E-06 -0.4376867E-08  0.2936279E-08
  0.4700000E+01  0.1024393E-06 -0.8920324E-08 -0.1728428E+02  0.1302795E+02 -0.9337004E-05  0.8517876E-05  0.2268819E+02 -0.2432780E+02  0.1109661E-07  0.3445894E-07 -0.4409414E-08  0.3181259E-08
  0.4800000E+01 -0.2425319E-10 -0.3853493E-06 -0.1723225E+02  0.1469865E+02  0.3636659E-04 -0.1369789E-04  0.2225584E+02 -0.1861118E+02 -0.2638747E-06  0.1909211E-07 -0.4470239E-08  0.3506961E-08
  0.4900000E+01 -0.1329986E-06 -0.1671015E-06 -0.1635867E+02  0.1614915E+02 -0.1552306E-04  0.4248600E-04  0.2182062E+02 -0.1624698E+02 -0.2303598E-06  0.2924353E-06 -0.4304418E-08  0.4118320E-08
  0.5000000E+01  0.4548347E-07 -0.1879234E-06 -0.1621621E+02  0.1165331E+02 -0.1575053E-04  0.1558289E-04  0.2357879E+02 -0.2310835E+02  0.3151596E-06  0.1140870E-06 -0.4249644E-08  0.2963473E-08
Zone t="Motion of body    1 in DoF   3",I=    21,F=POINT
  0.3000000E+01 -0.4553204E-02  0.3492892E-02  0.5572413E-07  0.6130524E-04 -0.4982159E+03 -0.4634328E+04 -0.4287561E-04 -0.6645918E-04  0.5677541E-03  0.3294849E-01  0.9947598E-13  0.1648459E-11
  0.3100000E+01 -0.3793740E-03  0.1653092E-01 -0.2151896E-04  0.9500189E-04 -0.6296478E+03 -0.4271028E+04 -0.1475792E-03 -0.1132488E-03 -0.1685850E-03  0.2484417E-01 -0.7563842E-13 -0.1303846E-11
  0.3200000E+01 -0.2516224E-02 -0.1313015E-01 -0.1940527E-04  0.1090379E-03 -0.6576758E+03 -0.4168127E+04  0.2660789E-04  0.1109541E-03 -0.5723536E-02 -0.1646137E-01 -0.8659740E-13  0.3943512E-12
  0.3300000E+01  0.1473738E-02  0.1422616E-01  0.1891008E-05 -0.1403317E-03 -0.5122640E+03 -0.3969922E+04  0.4834298E-04 -0.8451939E-04  0.5016616E-02  0.1452160E-01 -0.2583792E-13  0.1353584E-11
  0.3400000E+01  0.3401540E-02  0.1289397E-02 -0.1307536E-04  0.8414453E-04 -0.5227194E+03 -0.3938978E+04 -0.1186834E-04  0.1088083E-03  0.1708479E-02  0.1049709E-01 -0.6269494E-14  0.6217249E-12
  0.3500000E+01 -0.3116701E-02  0.2765036E-01  0.4802831E-05  0.1430986E-03 -0.4417199E+03 -0.3981671E+04  0.4480566E-04  0.1007318E-04  0.9550367E-02  0.1109886E-01 -0.1421085E-13  0.5417888E-12
  0.3600000E+01  0.4373905E-03  0.1038693E-01 -0.2191971E-05  0.7343711E-04 -0.5291240E+03 -0.3592530E+04  0.2914833E-04 -0.6315112E-04  0.2132522E-03 -0.1583815E-01 -0.4934325E-13  0.1652012E-11
  0.3700000E+01  0.1386158E-02 -0.2016105E-02 -0.2389346E-05  0.2078977E-03 -0.3886067E+03 -0.3572921E+04  0.1391849E-04 -0.2177358E-03 -0.2739881E-03  0.1338053E-01 -0.1920386E-13  0.3552714E-13
  0.3800000E+01  0.3959239E-02  0.9855211E-02 -0.1962885E-05  0.6339140E-04 -0.4072148E+03 -0.3489167E+04  0.2863376E-04 -0.9644032E-04  0.4306844E-02 -0.1111746E-01 -0.5609548E-14 -0.2540190E-12
  0.3900000E+01 -0.6616803E-03  0.1246352E-01  0.5537668E-05  0.6238697E-05 -0.4370279E+03 -0.3505852E+04  0.4599492E-04 -0.3145039E-03 -0.1301888E-02  0.2329159E-01 -0.1457523E-13 -0.1350031E-12
  0.4000000E+01 -0.2654674E-02 -0.1680972E-01 -0.3807130E-05 -0.8324068E-04 -0.5116896E+03 -0.3324378E+04  0.2614409E-04 -0.7069111E-04 -0.3219604E-02 -0.1499939E-01 -0.9148238E-13  0.1403322E-12
  0.4100000E+01 -0.2488712E-03  0.8450724E-02  0.2172140E-05 -0.1429012E-03 -0.4707787E+03 -0.3114922E+04 -0.4632444E-04 -0.1183152E-04 -0.1934214E-02 -0.7440567E-02  0.9011762E-13 -0.1172396E-12
  0.4200000E+01  0.7839895E-02  0.3974669E-02 -0.1660304E-05 -0.1190579E-04 -0.4137634E+03 -0.3378147E+04  0.8926506E-05 -0.1226217E-03  0.9121214E-02  0.4638052E-01 -0.2030122E-13  0.1106670E-11
  0.4300000E+01  0.3640506E-02  0.2301005E-01  0.8111169E-07  0.3379467E-04 -0.2711205E+03 -0.3515785E+04  0.1674475E-04  0.1726747E-03  0.3235839E-02 -0.1591921E-01 -0.3304850E-14  0.1056932E-12
  0.4400000E+01  0.4052682E-02 -0.1066597E-02 -0.1297925E-05  0.1469380E-03 -0.3020875E+03 -0.3151030E+04 -0.5381351E-04  0.6465614E-04 -0.3209981E-02 -0.2043247E-01  0.2422305E-13  0.5568879E-12
  0.4500000E+01  0.3052005E-02  0.4085556E-01  0.4590385E-05 -0.3455096E-04 -0.4023288E+03 -0.2967443E+04 -0.1026524E-05 -0.2992153E-03  0.1138263E-02  0.2388716E-01 -0.3947460E-14 -0.1153744E-11
  0.4600000E+01 -0.1494623E-01 -0.4905076E-01  0.4448078E-06 -0.9984954E-04 -0.3713232E+03 -0.3112615E+04 -0.6582426E-05  0.6404519E-04 -0.1552416E-02 -0.1711416E-01  0.1235727E-13 -0.1501022E-12
  0.4700000E+01 -0.2273378E-03  0.4939102E-03  0.1529747E-05  0.4378112E-04 -0.4322161E+03 -0.2919550E+04  0.7691536E-05  0.3803819E-03 -0.7905352E-03  0.9250641E-02 -0.6198352E-13  0.2913225E-12
  0.4800000E+01 -0.2389797E-02  0.2150232E-01 -0.8989494E-05 -0.6526872E-04 -0.5232697E+03 -0.2806582E+04  0.3091991E-04  0.2235174E-03 -0.8302926E-03  0.1513863E-01  0.6365278E-13 -0.2415845E-12
  0.4900000E+01  0.1059155E-02  0.9482011E-02  0.2603617E-05  0.2539856E-04 -0.5068992E+03 -0.3183835E+04  0.1066802E-04  0.1052022E-03  0.2098667E-02  0.4886150E-02 -0.1450087E-14  0.9059420E-13
  0.5000000E+01 -0.2588228E-03  0.3243554E-02  0.2176408E-05  0.6445148E-04 -0.4973900E+03 -0.2776418E+04  0.1345873E-04  0.1742840E-03  0.3381062E-02  0.6546974E-03 -0.6892264E-13 -0.5453415E-12
Zone t="Motion of body    1 in DoF   4",I=    21,F=POINT
  0.3000000E+01 -0.3837825E-06  0.1594890E-07 -0.3796455E+02  0.1331882E+02  0.7404884E-04 -0.1449510E-04  0.4089512E+02 -0.1989299E+02  0.4271666E-06  0.2151355E-06 -0.1125546E-07  0.3004915E-08
  0.3100000E+01 -0.2066184E-06 -0.1809967E-06 -0.3324733E+02  0.1311260E+02 -0.2774500E-04  0.3962778E-05  0.3897519E+02 -0.2240920E+02 -0.7017966E-06 -0.1378357E-06 -0.1001517E-07  0.2861199E-08
  0.3200000E+01  0.4038156E-07 -0.2826564E-06 -0.3370331E+02  0.1701044E+02 -0.4407018E-04 -0.1882389E-04  0.3755334E+02 -0.2621595E+02  0.9592623E-06 -0.1527369E-06 -0.1020179E-07  0.3780142E-08
  0.3300000E+01  0.1767396E-06  0.5948823E-07 -0.3166263E+02  0.1905650E+02  0.4909255E-04 -0.5313195E-05  0.3868661E+02 -0.3357779E+02 -0.1806201E-07 -0.3324822E-06 -0.9612810E-08  0.4341626E-08
  0.3400000E+01  0.1503812E-06  0.4185131E-07 -0.2799520E+02  0.1875327E+02 -0.2478852E-04 -0.1297239E-04  0.3047787E+02 -0.2958522E+02  0.3769117E-06 -0.1769513E-07 -0.8506857E-08  0.4126687E-08
  0.3500000E+01 -0.1965756E-06 -0.2186862E-06 -0.2661167E+02  0.2199398E+02  0.6178447E-04 -0.3641285E-04  0.3073082E+02 -0.3819529E+02 -0.1677445E-05 -0.2523884E-06 -0.8206483E-08  0.4975226E-08
  0.3600000E+01  0.3892152E-06  0.6976188E-07 -0.2847339E+02  0.2879719E+02 -0.2141959E-03 -0.2809800E-05  0.3311433E+02 -0.4807423E+02 -0.4967054E-07 -0.3259629E-06 -0.8615160E-08  0.6627379E-08
  0.3700000E+01 -0.2230140E-06  0.1320732E-06 -0.2843952E+02  0.3459428E+02 -0.4787703E-04 -0.4707836E-05  0.3120211E+02 -0.5306592E+02  0.6846479E-06  0.2328306E-08 -0.8609397E-08  0.8175463E-08
  0.3800000E+01  0.1780542E-06 -0.3164751E-06 -0.2579148E+02  0.3522432E+02  0.1233346E-03 -0.5389331E-04  0.2734571E+02 -0.5522111E+02 -0.1262677E-05  0.7927883E-06 -0.7906194E-08  0.8380429E-08
  0.3900000E+01 -0.3677530E-07 -0.8367351E-07 -0.2286203E+02  0.3433979E+02  0.7021122E-04  0.6072939E-04  0.2530290E+02 -0.5860318E+02  0.5349135E-06 -0.1479057E-06 -0.7143386E-08  0.8118979E-08
  0.4000000E+01 -0.7625204E-08  0.4695612E-06 -0.2278004E+02  0.3902113E+02  0.2010912E-04 -0.4865066E-04  0.2492513E+02 -0.6231923E+02 -0.4246831E-06  0.1429580E-06 -0.7113704E-08  0.9215395E-08
  0.4100000E+01 -0.2988183E-06  0.2717716E-06 -0.2256296E+02  0.4307905E+02  0.6280294E-04 -0.1503257E-03  0.2430280E+02 -0.6688181E+02 -0.2616789E-06  0.4416797E-06 -0.6972086E-08  0.1011166E-07
  0.4200000E+01  0.2385405E-06 -0.3684545E-07 -0.2180032E+02  0.5313810E+02  0.4270957E-04  0.1926720E-04  0.2350231E+02 -0.8412393E+02 -0.4967054E-07  0.8195639E-07 -0.6731002E-08  0.1281460E-07
  0.4300000E+01 -0.1075894E-06 -0.3099558E-06 -0.1973157E+02  0.5570787E+02 -0.4346287E-04  0.1100637E-04  0.2063136E+02 -0.9228136E+02  0.2703001E-05 -0.7264316E-07 -0.6128841E-08  0.1342648E-07
  0.4400000E+01  0.1419209E-06 -0.3564637E-06 -0.1889817E+02  0.5157360E+02 -0.3931197E-04 -0.2065301E-04  0.2058919E+02 -0.8378428E+02 -0.8737499E-06  0.1308508E-05 -0.5893165E-08  0.1201268E-07
  0.4500000E+01  0.5251625E-07  0.7512281E-06 -0.1860103E+02  0.5318600E+02  0.2369616E-04 -0.1124032E-03  0.2048148E+02 -0.8738752E+02 -0.1523230E-06  0.1190230E-05 -0.5764522E-08  0.1246449E-07
  0.4600000E+01 -0.3539532E-06 -0.1024804E-05 -0.1728577E+02  0.6037299E+02 -0.6413978E-05 -0.1153350E-04  0.1726580E+02 -0.1001842E+03 -0.1010687E-05  0.3725290E-08 -0.5385188E-08  0.1499007E-07
  0.4700000E+01  0.7034458E-08 -0.7619383E-07 -0.1677377E+02  0.6923632E+02  0.2424134E-04  0.1303479E-04  0.1492981E+02 -0.1084891E+03  0.1775458E-06  0.5699694E-06 -0.5293708E-08  0.1681493E-07
  0.4800000E+01 -0.8100566E-07  0.3242167E-06 -0.1631513E+02  0.7557563E+02  0.1437341E-04  0.7063150E-05  0.1526160E+02 -0.1067125E+03  0.3725290E-06 -0.8475035E-06 -0.5174273E-08  0.1853697E-07
  0.4900000E+01  0.3292891E-07 -0.8772477E-06 -0.1469113E+02  0.7767327E+02  0.4803039E-04 -0.3853813E-04  0.1490682E+02 -0.1089221E+03 -0.3345158E-06  0.1642853E-05 -0.4755134E-08  0.1964027E-07
  0.5000000E+01 -0.3241002E-07 -0.2044835E-06 -0.1489226E+02  0.7710714E+02 -0.1062155E-04  0.8904189E-04  0.1471042E+02 -0.1296687E+03 -0.5602836E-06  0.1046807E-05 -0.4760881E-08  0.1917276E-07
Zone t="Motion of body    1 in DoF   5",I=    21,F=POINT
  0.3000000E+01  0.3796394E+02 -0.1332036E+02 -0.6796326E-06 -0.4045432E-07 -0.1370430E-01  0.1526955E+00  0.8245309E-06 -0.2169982E-06  0.4089761E+02 -0.1989107E+02 -0.5210647E-13  0.1176836E-13
  0.3100000E+01  0.3324607E+02 -0.1311609E+02 -0.1323379E-06  0.3704918E-07 -0.4020814E-03  0.3295580E-01 -0.3557051E-06  0.4190952E-07  0.3897806E+02 -0.2241110E+02 -0.6532409E-13 -0.1487699E-13
  0.3200000E+01  0.3370654E+02 -0.1702784E+02 -0.4319008E-06  0.4874892E-07 -0.7664859E-02 -0.3982297E-01  0.2076849E-05 -0.2356246E-06  0.3755980E+02 -0.2624051E+02 -0.2886580E-13 -0.8881784E-14
  0.3300000E+01  0.3166479E+02 -0.1905312E+02  0.1531743E-06  0.6187474E-07 -0.2618270E-03  0.3568465E-01 -0.1815232E-05  0.3930181E-06  0.3868799E+02 -0.3357711E+02 -0.6459479E-13 -0.1021405E-13
  0.3400000E+01  0.2799441E+02 -0.1875233E+02 -0.9121483E-07  0.1004955E-06 -0.4260961E-02  0.3012708E-01 -0.3506155E-07 -0.1024455E-07  0.3047855E+02 -0.2958040E+02 -0.2089831E-14 -0.5773160E-14
  0.3500000E+01  0.2661378E+02 -0.2199056E+02  0.8767737E-07  0.2524175E-06  0.1238305E-01  0.3102525E-01 -0.8855547E-06 -0.1164153E-06  0.3073380E+02 -0.3819624E+02  0.1015061E-13 -0.3108624E-13
  0.3600000E+01  0.2847482E+02 -0.2878590E+02 -0.3259629E-07  0.4070462E-06 -0.8342266E-02 -0.3423965E-01 -0.1647406E-05  0.3604218E-06  0.3311528E+02 -0.4807570E+02  0.0000000E+00 -0.1199041E-13
  0.3700000E+01  0.2844292E+02 -0.3458804E+02 -0.4769882E-07 -0.1618173E-07 -0.5379239E-03  0.6607839E-01 -0.1361241E-05 -0.8614734E-08  0.3120236E+02 -0.5307043E+02 -0.9601929E-14 -0.4973799E-13
  0.3800000E+01  0.2578972E+02 -0.3520615E+02 -0.2362006E-06 -0.9304495E-07  0.7206766E-02 -0.6570838E-02 -0.5411474E-06  0.5587935E-07  0.2734580E+02 -0.5521986E+02 -0.2804774E-14 -0.6217249E-14
  0.3900000E+01  0.2286327E+02 -0.3433461E+02 -0.5355105E-07 -0.3513414E-06 -0.1566471E-02  0.1513050E-01 -0.4355724E-06 -0.4406102E-06  0.2530311E+02 -0.5860248E+02 -0.8198570E-14 -0.5151435E-13
  0.4000000E+01  0.2278056E+02 -0.3899975E+02 -0.3238092E-06  0.4846661E-06 -0.2962828E-02 -0.5161804E-01  0.3278255E-06  0.1423759E-06  0.2492517E+02 -0.6231941E+02  0.3375078E-13  0.1287859E-13
  0.4100000E+01  0.2256618E+02 -0.4307489E+02  0.1545768E-06 -0.6707269E-06 -0.1551931E-02 -0.1007211E-01 -0.1133942E-05  0.2284069E-06  0.2430498E+02 -0.6688387E+02 -0.2079637E-13  0.5240253E-13
  0.4200000E+01  0.2179963E+02 -0.5312873E+02  0.1874287E-06 -0.5905167E-07  0.3761337E-02  0.1289884E+00  0.1596553E-05  0.9527430E-06  0.2350241E+02 -0.8412370E+02  0.5075305E-14  0.7993606E-13
  0.4300000E+01  0.1973232E+02 -0.5571068E+02  0.2241672E-06 -0.6332994E-07  0.1502148E-02 -0.3849864E-03 -0.6861464E-06  0.7543713E-07  0.2063197E+02 -0.9229010E+02 -0.3470092E-13  0.3286260E-13
  0.4400000E+01  0.1890216E+02 -0.5158293E+02 -0.7947991E-07 -0.1414446E-07 -0.1701875E-02 -0.4257351E-01 -0.7111918E-06  0.1421198E-05  0.2059080E+02 -0.8379357E+02  0.3229740E-14  0.4884981E-14
  0.4500000E+01  0.1860927E+02 -0.5317788E+02 -0.2070640E-06  0.2862071E-06  0.1334487E-01  0.6125015E-01  0.7218785E-06  0.3352761E-06  0.2047895E+02 -0.8739028E+02  0.6315935E-14 -0.4440892E-15
  0.4600000E+01  0.1728401E+02 -0.6039258E+02  0.7840319E-07  0.6064074E-06  0.4009579E-03 -0.1003522E-01  0.1043081E-05  0.5960464E-07  0.1726723E+02 -0.1001852E+03 -0.2239754E-13  0.1780798E-12
  0.4700000E+01  0.1677520E+02 -0.6923916E+02 -0.3616306E-08 -0.4060566E-06  0.4908177E-02  0.2724642E-01 -0.8496833E-06 -0.1117587E-07  0.1493070E+02 -0.1085002E+03  0.2494459E-13 -0.1332268E-14
  0.4800000E+01  0.1631428E+02 -0.7557227E+02 -0.1159303E-07  0.6833579E-07 -0.1019239E-03  0.1336777E-01  0.9934107E-07 -0.1681969E-05  0.1526179E+02 -0.1067177E+03  0.3034609E-13  0.1261213E-12
  0.4900000E+01  0.1469168E+02 -0.7767932E+02  0.1030632E-06  0.4574249E-06  0.6106046E-02  0.4241550E-01 -0.1003548E-05 -0.1098961E-05  0.1490802E+02 -0.1089287E+03 -0.3480209E-13  0.1088019E-13
  0.5000000E+01  0.1489244E+02 -0.7710761E+02 -0.1364388E-07 -0.4420872E-06  0.7626152E-02  0.2038419E-01 -0.5304813E-06  0.1307577E-05  0.1470974E+02 -0.1296724E+03  0.2629008E-13 -0.1623146E-12
Zone t="Motion of body    1 in DoF   6",I=    21,F=POINT
  0.3000000E+01 -0.4996004E-15 -0.7196392E-17 -0.6085296E-08  0.4945396E-09  0.1500652E-13  0.2185752E-15  0.7344183E-08 -0.7013514E-09 -0.1194415E-13  0.3079134E-16  0.1171485E-12  0.2039910E-17
  0.3100000E+01 -0.8595275E-15 -0.1460285E-17 -0.5528149E-08  0.4342375E-09  0.1772775E-14 -0.9157172E-15  0.7400949E-08 -0.7358186E-09 -0.6867267E-14  0.7047314E-17  0.1169842E-12  0.1670026E-17
  0.3200000E+01  0.2255141E-15 -0.1831285E-16 -0.5985644E-08  0.4078578E-09  0.8500145E-15 -0.1543904E-15  0.7434553E-08 -0.5526603E-09 -0.1864828E-14 -0.1422473E-15  0.1169441E-12 -0.1210615E-17
  0.3300000E+01 -0.1930274E-14 -0.2768781E-16 -0.5997777E-08  0.6717766E-09 -0.1253206E-13 -0.6297046E-15  0.8210834E-08 -0.1325283E-08 -0.1988309E-13 -0.1032160E-15  0.1170725E-12 -0.6420675E-17
  0.3400000E+01 -0.2485757E-14 -0.3913292E-17 -0.5479225E-08  0.5177665E-09 -0.1025324E-13 -0.9259087E-15  0.6931182E-08 -0.7982362E-09  0.5991939E-14 -0.3501973E-15  0.1171778E-12 -0.5358490E-17
  0.3500000E+01  0.8683530E-15  0.5400682E-17 -0.5197283E-08  0.9104794E-09  0.1072158E-13 -0.2723516E-15  0.7079252E-08 -0.1504329E-08  0.4996004E-14 -0.1405126E-15  0.1172813E-12  0.4865430E-17
  0.3600000E+01 -0.1067819E-14  0.1097755E-17 -0.5627416E-08  0.1089630E-08 -0.1409367E-13 -0.4411402E-14  0.7674389E-08 -0.1917916E-08  0.4317534E-14  0.1209102E-14  0.1173280E-12 -0.1107036E-16
  0.3700000E+01  0.2100422E-14  0.4445229E-16 -0.5741349E-08  0.1338898E-08  0.7531513E-14  0.4732326E-14  0.7423299E-08 -0.2007478E-08  0.2310464E-14 -0.9402201E-15  0.1173402E-12 -0.4513851E-16
  0.3800000E+01  0.1888109E-14 -0.2298509E-16 -0.5289529E-08  0.1347619E-08  0.5258951E-15  0.3150258E-14  0.6935773E-08 -0.2286039E-08  0.7888427E-15  0.6765422E-15  0.1173367E-12  0.1794854E-16
  0.3900000E+01 -0.4092168E-15 -0.1354169E-15 -0.4838850E-08  0.1380210E-08  0.2055336E-13 -0.8881784E-15  0.6796408E-08 -0.2624480E-08 -0.1167158E-13 -0.6980527E-14  0.1172518E-12  0.1389316E-15
  0.4000000E+01  0.7181755E-15 -0.4250073E-16 -0.5049570E-08  0.1549010E-08  0.4618528E-13 -0.4912737E-14  0.6808850E-08 -0.2300388E-08  0.1529332E-13 -0.2192690E-14  0.1172504E-12  0.1507584E-16
  0.4100000E+01  0.2325376E-14  0.3417405E-15 -0.5106688E-08  0.1455849E-08 -0.1397256E-13 -0.3219647E-14  0.6708373E-08 -0.1840273E-08 -0.8665156E-15  0.1160183E-13  0.1175009E-12 -0.3429276E-15
  0.4200000E+01  0.9053605E-15  0.1423341E-14 -0.5206334E-08  0.2514966E-08 -0.1882092E-13 -0.5551115E-14  0.7018945E-08 -0.3917093E-08 -0.3071617E-13  0.1326717E-13  0.1178351E-12  0.6563096E-15
  0.4300000E+01  0.5102507E-14 -0.7155734E-15 -0.4965763E-08  0.3180656E-08  0.8468678E-14  0.3563816E-13  0.6773323E-08 -0.5793172E-08 -0.3821233E-13 -0.3280709E-13  0.1182818E-12  0.1019156E-14
  0.4400000E+01 -0.7563394E-14  0.8812395E-15 -0.4709689E-08  0.2024803E-08 -0.6055762E-15  0.2664535E-13  0.6585297E-08 -0.3052675E-08  0.1917658E-14  0.4884981E-14  0.1186999E-12 -0.7791636E-14
  0.4500000E+01 -0.4567334E-14  0.1163078E-15 -0.4721074E-08  0.1354704E-08  0.5526444E-14 -0.1949829E-14  0.6690080E-08 -0.2037890E-08 -0.2492821E-12 -0.1477984E-14  0.1198591E-12 -0.1793589E-15
  0.4600000E+01  0.5732130E-15  0.1224021E-13 -0.4637742E-08  0.2166957E-08 -0.1076434E-13 -0.7904788E-13  0.6460382E-08 -0.4411510E-08  0.6613068E-14 -0.4591882E-12  0.1171509E-12  0.8399595E-14
  0.4700000E+01  0.5019626E-15  0.7632783E-16 -0.4698025E-08  0.3313531E-08 -0.3099176E-13  0.4551914E-14  0.6256098E-08 -0.6352719E-08 -0.7700696E-14 -0.2486900E-13  0.1164976E-12 -0.9966559E-15
  0.4800000E+01 -0.9251858E-16 -0.2242130E-15 -0.4715162E-08  0.3784541E-08 -0.2229698E-13  0.5342948E-15  0.6115081E-08 -0.4739267E-08 -0.2710794E-13  0.7296247E-14  0.1165013E-12  0.6864624E-16
  0.4900000E+01  0.3172066E-15  0.1004405E-14 -0.4486860E-08  0.4117231E-08 -0.1857924E-13 -0.4996004E-14  0.6004075E-08 -0.4048051E-08 -0.1694789E-13  0.4052314E-14  0.1164416E-12  0.7281901E-15
  0.5000000E+01  0.3996803E-15  0.1843144E-17 -0.4416281E-08  0.2803402E-08 -0.7727152E-14 -0.1944278E-13  0.6506211E-08 -0.5902526E-08 -0.3885781E-14  0.3073930E-14  0.1165250E-12 -0.1952323E-16
