VARIABLES="w (rad/s)"
"abs(F   1   1)" "angle(F   1   1)"
"abs(F   1   2)" "angle(F   1   2)"
"abs(F   1   3)" "angle(F   1   3)"
"abs(F   1   4)" "angle(F   1   4)"
"abs(F   1   5)" "angle(F   1   5)"
"abs(F   1   6)" "angle(F   1   6)"
Zone t="Diffraction force - beta =   0.000 deg",I=    21,F=POINT
  0.3000000E+01  0.2077607E+03  0.1495213E+01  0.1282973E-03 -0.1124553E+00  0.7659459E+03 -0.1301848E+01  0.7415337E-04 -0.1395099E+00  0.2428843E+03 -0.1672648E+01  0.6611122E-12  0.9485618E-01
  0.3100000E+01  0.2060845E+03  0.1485649E+01  0.1627331E-03 -0.3135435E+01  0.8231872E+03 -0.1330870E+01  0.6928873E-04  0.2295938E+01  0.2311323E+03 -0.1687052E+01  0.7705567E-12 -0.2560144E+01
  0.3200000E+01  0.1857548E+03  0.1488824E+01  0.1073308E-03 -0.4742957E-01  0.7627247E+03 -0.1420544E+01  0.5376094E-04  0.5624775E+00  0.2090930E+03 -0.1692374E+01  0.7286616E-12  0.2724297E+01
  0.3300000E+01  0.1816987E+03  0.1486405E+01  0.7338096E-04 -0.2999130E+01  0.7557502E+03 -0.1481811E+01  0.1347071E-03  0.1573894E+01  0.1870011E+03 -0.1699553E+01  0.2054156E-12  0.2101205E+01
  0.3400000E+01  0.1732343E+03  0.1489758E+01  0.7113224E-04 -0.2962349E+01  0.7766766E+03 -0.1523742E+01  0.1925550E-03 -0.2474006E+01  0.1634567E+03 -0.1701669E+01  0.2708988E-12 -0.2672080E+01
  0.3500000E+01  0.1750484E+03  0.1478398E+01  0.9093892E-05  0.1250535E+01  0.6981127E+03 -0.1603899E+01  0.1149579E-03  0.6170549E+00  0.1732425E+03 -0.1727752E+01  0.4516359E-12 -0.2107506E+01
  0.3600000E+01  0.1706026E+03  0.1473360E+01  0.5590178E-04 -0.3104149E+01  0.6864009E+03 -0.1643623E+01  0.1109709E-03 -0.1541788E+01  0.1604020E+03 -0.1740197E+01  0.6185034E-12  0.1068928E+01
  0.3700000E+01  0.1773770E+03  0.1464189E+01  0.3657568E-04  0.4145712E+00  0.6886761E+03 -0.1697509E+01  0.1372436E-03  0.2715828E+01  0.1673988E+03 -0.1760451E+01  0.1234097E-12 -0.2353650E+01
  0.3800000E+01  0.1797409E+03  0.1451318E+01  0.2975929E-04 -0.2871108E+01  0.6721689E+03 -0.1759069E+01  0.1412699E-03  0.1052524E+00  0.1691940E+03 -0.1788994E+01  0.1786674E-12 -0.4035863E+00
  0.3900000E+01  0.1777450E+03  0.1448889E+01  0.1020688E-04 -0.2261014E+01  0.7246283E+03 -0.1793883E+01  0.9136832E-04 -0.1462949E+01  0.1601499E+03 -0.1798436E+01  0.8476099E-12 -0.5203809E+00
  0.4000000E+01  0.1729646E+03  0.1454796E+01  0.4161124E-04 -0.1341992E+00  0.7037679E+03 -0.1866717E+01  0.6485799E-04 -0.2736339E+01  0.1511614E+03 -0.1817313E+01  0.5201117E-12 -0.2980374E+01
  0.4100000E+01  0.1742677E+03  0.1446883E+01  0.1400245E-04  0.1163976E-01  0.6790072E+03 -0.1929875E+01  0.1248341E-03  0.2038568E+00  0.1391348E+03 -0.1834705E+01  0.7390110E-12  0.2450240E+01
  0.4200000E+01  0.1739071E+03  0.1442379E+01  0.5119578E-04  0.6241881E-01  0.6472280E+03 -0.1995775E+01  0.1396075E-03 -0.2642041E+01  0.1267954E+03 -0.1852263E+01  0.5798086E-12  0.2888440E+01
  0.4300000E+01  0.1731481E+03  0.1445322E+01  0.5998639E-04  0.2318607E+01  0.6101922E+03 -0.2070600E+01  0.7924695E-03  0.1630175E+01  0.1191914E+03 -0.1872255E+01  0.1865366E-11  0.1634166E+01
  0.4400000E+01  0.1704102E+03  0.1452206E+01  0.4185709E-04 -0.2971845E+01  0.5986005E+03 -0.2129406E+01  0.1390973E-03  0.6324744E-01  0.1124994E+03 -0.1884900E+01  0.4051268E-12 -0.2719004E+00
  0.4500000E+01  0.1673176E+03  0.1454690E+01  0.8770883E-04  0.1094773E-01  0.5899906E+03 -0.2175767E+01  0.6221824E-04  0.2313420E+01  0.1044022E+03 -0.1907808E+01  0.1565005E-12 -0.4680892E+00
  0.4600000E+01  0.1692429E+03  0.1440428E+01  0.1005832E-03 -0.3128741E+01  0.5755336E+03 -0.2213989E+01  0.1861069E-03  0.9753544E+00  0.1022284E+03 -0.1949153E+01  0.9572698E-13  0.1642765E+01
  0.4700000E+01  0.1712752E+03  0.1435710E+01  0.1144512E-03 -0.2212709E-01  0.5646399E+03 -0.2266138E+01  0.1175492E-03 -0.2161665E+00  0.9937902E+02 -0.1972973E+01  0.4057785E-12 -0.7339133E+00
  0.4800000E+01  0.1699973E+03  0.1460178E+01  0.1071262E-05  0.1333408E+01  0.5620048E+03 -0.2342984E+01  0.6432485E-04  0.2264170E+01  0.8988129E+02 -0.1947665E+01  0.6280930E-12  0.2192011E-01
  0.4900000E+01  0.1687761E+03  0.1471262E+01  0.2779089E-04  0.3028315E+01  0.5681964E+03 -0.2392601E+01  0.6653159E-04 -0.2296453E+01  0.8215707E+02 -0.1964849E+01  0.3770734E-12 -0.6128011E-01
  0.5000000E+01  0.1676001E+03  0.1469241E+01  0.3218659E-04 -0.3114072E+01  0.5539814E+03 -0.2427700E+01  0.1026834E-03 -0.1626675E+00  0.7241563E+02 -0.2000331E+01  0.5627619E-12  0.3005443E+01
