VARIABLES="w (rad/s)"
"abs(F   1   1)" "angle(F   1   1)"
"abs(F   1   2)" "angle(F   1   2)"
"abs(F   1   3)" "angle(F   1   3)"
"abs(F   1   4)" "angle(F   1   4)"
"abs(F   1   5)" "angle(F   1   5)"
"abs(F   1   6)" "angle(F   1   6)"
Zone t="Diffraction force - beta =   0.000 deg",I=    21,F=POINT
  0.3000000E+01  0.1497929E+03  0.1465871E+01  0.9981799E-04 -0.1426571E+00  0.9760928E+03 -0.8579396E+00  0.8378950E-05 -0.1988297E+01  0.2346592E+03 -0.1676230E+01  0.6134219E-12  0.3098143E+01
  0.3100000E+01  0.1445629E+03  0.1449260E+01  0.1858534E-03 -0.3133470E+01  0.1016001E+04 -0.9059546E+00  0.8083243E-04  0.7071064E+00  0.2224077E+03 -0.1691635E+01  0.7357224E-12 -0.2396753E+01
  0.3200000E+01  0.1205320E+03  0.1444271E+01  0.1027207E-03 -0.5101242E-01  0.9284855E+03 -0.9479420E+00  0.3207133E-04  0.9771233E+00  0.1998526E+03 -0.1698025E+01  0.1261127E-11  0.2961739E+01
  0.3300000E+01  0.1127395E+03  0.1434525E+01  0.2239220E-03 -0.3096218E+01  0.8986417E+03 -0.9929925E+00  0.1420933E-03  0.1800158E+01  0.1772411E+03 -0.1706686E+01  0.4613609E-12  0.2448210E+01
  0.3400000E+01  0.1004268E+03  0.1430702E+01  0.7786405E-04 -0.2980768E+01  0.9000650E+03 -0.1039117E+01  0.1650974E-03 -0.2346237E+01  0.1531649E+03 -0.1710519E+01  0.5074875E-12 -0.2970114E+01
  0.3500000E+01  0.9848193E+02  0.1406050E+01  0.7478445E-04  0.1228505E+00  0.8006634E+03 -0.1058130E+01  0.7048486E-04  0.9119038E+00  0.1624539E+03 -0.1738271E+01  0.1038658E-11 -0.2732659E+01
  0.3600000E+01  0.9018915E+02  0.1385721E+01  0.9399742E-04 -0.3117226E+01  0.7743373E+03 -0.1084537E+01  0.1124040E-03 -0.1870075E+01  0.1490971E+03 -0.1753180E+01  0.6729782E-12  0.8872952E+00
  0.3700000E+01  0.9311103E+02  0.1366679E+01  0.7998369E-04  0.2954870E+01  0.7546828E+03 -0.1131900E+01  0.6139626E-04  0.2050075E+01  0.1555967E+03 -0.1775032E+01  0.3559793E-12 -0.1844283E+00
  0.3800000E+01  0.9170628E+02  0.1335001E+01  0.1499502E-03 -0.3083588E+01  0.7163394E+03 -0.1172588E+01  0.6264221E-04  0.4593928E+00  0.1569286E+03 -0.1806358E+01  0.2362542E-12 -0.2979224E+01
  0.3900000E+01  0.8575809E+02  0.1316005E+01  0.4436701E-04 -0.1725855E+00  0.7460098E+03 -0.1244601E+01  0.1317773E-03 -0.2315244E+01  0.1473785E+03 -0.1818559E+01  0.9480661E-12 -0.5694237E+00
  0.4000000E+01  0.7683259E+02  0.1307201E+01  0.7280213E-04 -0.3061810E+01  0.6994422E+03 -0.1295887E+01  0.9307087E-04 -0.2837867E+01  0.1379244E+03 -0.1841540E+01  0.6418920E-12 -0.3047362E+01
  0.4100000E+01  0.7427587E+02  0.1276585E+01  0.7917106E-04 -0.1895201E-01  0.6536614E+03 -0.1335834E+01  0.2392951E-03  0.6955059E-01  0.1254442E+03 -0.1864318E+01  0.4928218E-12  0.1849220E+01
  0.4200000E+01  0.7000984E+02  0.1247053E+01  0.1459331E-03  0.2538971E-01  0.6016560E+03 -0.1370735E+01  0.7882623E-04 -0.8025090E+00  0.1126715E+03 -0.1888709E+01  0.8661834E-12  0.3073865E+01
  0.4300000E+01  0.6511450E+02  0.1231548E+01  0.8082457E-04  0.2582053E+01  0.5429895E+03 -0.1405086E+01  0.7801497E-03  0.1538702E+01  0.1046658E+03 -0.1915714E+01  0.2002390E-11  0.1815184E+01
  0.4400000E+01  0.5813576E+02  0.1216635E+01  0.8535472E-04 -0.3070703E+01  0.5111758E+03 -0.1452595E+01  0.2355207E-03  0.2644953E-01  0.9755602E+02 -0.1935090E+01  0.3620048E-12 -0.2453506E+00
  0.4500000E+01  0.5101362E+02  0.1181045E+01  0.5342753E-04  0.3129948E+01  0.4867245E+03 -0.1493691E+01  0.4256269E-04  0.1247108E+01  0.8912965E+02 -0.1968531E+01  0.1793087E-12  0.1692202E+00
  0.4600000E+01  0.4961993E+02  0.1111407E+01  0.9871346E-04 -0.3121326E+01  0.4611236E+03 -0.1520200E+01  0.1495086E-03  0.1356570E+01  0.8678420E+02 -0.2020981E+01  0.2687717E-12  0.1286936E+01
  0.4700000E+01  0.4796218E+02  0.1069076E+01  0.9028263E-04 -0.1221394E-01  0.4335557E+03 -0.1565761E+01  0.1336073E-03 -0.1261395E+00  0.8368961E+02 -0.2054209E+01  0.5572830E-12 -0.6954015E+00
  0.4800000E+01  0.4145377E+02  0.1100994E+01  0.3507846E-04  0.2150691E-01  0.4039473E+03 -0.1652115E+01  0.1386170E-03  0.2783086E+01  0.7360157E+02 -0.2036900E+01  0.4936779E-12 -0.1135877E+00
  0.4900000E+01  0.3579182E+02  0.1083114E+01  0.4627061E-05  0.9635332E+00  0.3917399E+03 -0.1728392E+01  0.6102026E-04 -0.1965588E+01  0.6565458E+02 -0.2071949E+01  0.9633356E-13 -0.9232913E-01
  0.5000000E+01  0.3114428E+02  0.9937235E+00  0.2858982E-04 -0.4102362E-01  0.3691916E+03 -0.1758070E+01  0.2029430E-03 -0.9943482E-01  0.5594421E+02 -0.2140116E+01  0.7405377E-12  0.2511165E+01
