VARIABLES="w (rad/s)"
"abs(F   1   1)" "angle(F   1   1)"
"abs(F   1   2)" "angle(F   1   2)"
"abs(F   1   3)" "angle(F   1   3)"
"abs(F   1   4)" "angle(F   1   4)"
"abs(F   1   5)" "angle(F   1   5)"
"abs(F   1   6)" "angle(F   1   6)"
Zone t="FKforce - beta =   0.000",I=    21,F=POINT
  0.3000000E+01  0.5819839E+02 -0.1570796E+01  0.2868361E-04  0.3134417E+01  0.4348369E+03 -0.2456358E-06  0.7687616E-04  0.3107084E+01  0.8269403E+01  0.1570781E+01  0.1271492E-11 -0.3113298E+01
  0.3100000E+01  0.6184139E+02 -0.1570796E+01  0.2312286E-04 -0.3119640E+01  0.4311912E+03  0.2477127E-06  0.1074096E-03  0.6104253E-02  0.8786249E+01  0.1570801E+01  0.1277280E-12 -0.6323750E+00
  0.3200000E+01  0.6556258E+02 -0.1570796E+01  0.4625486E-05 -0.3109372E+01  0.4274670E+03 -0.2364849E-06  0.2761625E-04 -0.3065979E+01  0.9312346E+01  0.1570790E+01  0.5788656E-12 -0.3020854E+01
  0.3300000E+01  0.6935776E+02 -0.1570796E+01  0.1510542E-03  0.3139860E+01  0.4236632E+03  0.5852652E-07  0.3209848E-04  0.3027142E+01  0.9846009E+01  0.1570802E+01  0.2771380E-12  0.2703029E+01
  0.3400000E+01  0.7322285E+02 -0.1570796E+01  0.6869953E-05  0.3110543E+01  0.4197842E+03 -0.2635311E-06  0.3566769E-04  0.3677271E-01  0.1038664E+02  0.1570796E+01  0.2609511E-12  0.3003306E+01
  0.3500000E+01  0.7715321E+02 -0.1570796E+01  0.7135992E-04  0.7465275E-02  0.4158323E+03  0.3577721E-06  0.5174157E-04 -0.2931545E+01  0.1093190E+02  0.1570794E+01  0.7225172E-12 -0.3107166E+01
  0.3600000E+01  0.8114447E+02 -0.1570796E+01  0.3810744E-04 -0.3136411E+01  0.4118093E+03 -0.9263262E-07  0.3652851E-04  0.3045171E+01  0.1148185E+02  0.1570796E+01  0.1290803E-12 -0.1589270E+00
  0.3700000E+01  0.8519193E+02 -0.1570796E+01  0.1120708E-03  0.3140562E+01  0.4077260E+03 -0.3882753E-06  0.9670389E-04 -0.2280739E-01  0.1203443E+02  0.1570795E+01  0.4375476E-12  0.5076934E-01
  0.3800000E+01  0.8929086E+02 -0.1570796E+01  0.1210230E-03 -0.3135467E+01  0.4035779E+03 -0.9452195E-08  0.8532658E-04  0.2989421E+01  0.1258752E+02  0.1570786E+01  0.3987439E-12  0.3061319E+01
  0.3900000E+01  0.9343639E+02 -0.1570796E+01  0.5020730E-04  0.5008398E-02  0.3993697E+03 -0.3820718E-07  0.9930880E-04 -0.3080334E+01  0.1314025E+02  0.1570797E+01  0.1096532E-12 -0.9580796E+00
  0.4000000E+01  0.9762346E+02 -0.1570796E+01  0.1138079E-03 -0.3139530E+01  0.3951034E+03 -0.2268910E-06  0.2929397E-04 -0.3064197E+01  0.1369145E+02  0.1570803E+01  0.1277812E-12  0.2959874E+01
  0.4100000E+01  0.1018472E+03 -0.1570796E+01  0.6517656E-04 -0.2552333E-01  0.3907880E+03  0.9761551E-07  0.1167877E-03 -0.7407099E-01  0.1423853E+02  0.1570797E+01  0.4338833E-12  0.6141171E-02
  0.4200000E+01  0.1061022E+03 -0.1570796E+01  0.9479139E-04  0.5393935E-02  0.3864199E+03 -0.2270536E-06  0.1776165E-03  0.5741582E-01  0.1478039E+02  0.1570800E+01  0.3150058E-12 -0.2863099E+01
  0.4300000E+01  0.1103836E+03 -0.1570796E+01  0.2772693E-04 -0.3102653E+01  0.3820042E+03  0.2696222E-06  0.7294647E-04 -0.1558797E+00  0.1531507E+02  0.1570796E+01  0.3752788E-12  0.2923309E+01
  0.4400000E+01  0.1146856E+03 -0.1570796E+01  0.4389683E-04  0.3118232E+01  0.3775439E+03 -0.2020797E-07  0.9665312E-04 -0.2652062E-01  0.1584123E+02  0.1570789E+01  0.4430444E-13  0.2651046E+01
  0.4500000E+01  0.1190033E+03 -0.1570796E+01  0.1411279E-03 -0.3139197E+01  0.3730420E+03 -0.1022592E-06  0.5588084E-04 -0.9828890E-01  0.1635699E+02  0.1570805E+01  0.1074120E-12  0.1218316E+01
  0.4600000E+01  0.1233312E+03 -0.1570796E+01  0.2010453E-05 -0.3597737E+00  0.3684992E+03 -0.2587995E-06  0.7303648E-04 -0.3032017E+01  0.1686046E+02  0.1570796E+01  0.1821204E-12  0.1102787E+01
  0.4700000E+01  0.1276637E+03 -0.1570796E+01  0.2418961E-04  0.3082459E+01  0.3639185E+03 -0.1572343E-06  0.1962317E-04  0.4425910E+00  0.1734973E+02  0.1570798E+01  0.1526072E-12 -0.5928452E+00
  0.4800000E+01  0.1319957E+03 -0.1570796E+01  0.3481961E-04 -0.8238192E-02  0.3593007E+03 -0.9555306E-07  0.8869564E-04 -0.3132184E+01  0.1782335E+02  0.1570792E+01  0.1541183E-12 -0.2672146E+01
  0.4900000E+01  0.1363215E+03 -0.1570796E+01  0.3026025E-04  0.2176112E-01  0.3546519E+03  0.5378086E-07  0.2169715E-04 -0.3069819E+00  0.1827961E+02  0.1570797E+01  0.2808022E-12  0.3090963E+01
  0.5000000E+01  0.1406357E+03 -0.1570796E+01  0.6074084E-04 -0.4722497E-02  0.3499730E+03 -0.2179995E-06  0.1006741E-03 -0.3493838E-01  0.1871737E+02  0.1570793E+01  0.3624414E-12  0.1683145E+01
