 VARIABLES="Time (s)"
"AddedMass    1" "IRF    1"
"AddedMass    2" "IRF    2"
"AddedMass    3" "IRF    3"
"AddedMass    4" "IRF    4"
"AddedMass    5" "IRF    5"
"AddedMass    6" "IRF    6"
Zone t="DoF    1",I=   100,F=POINT
  0.0000000E+00  0.9600656E+01 -0.2476646E+01  0.4421269E-08 -0.1202724E-07 -0.7860850E-03  0.1162282E-02 -0.5766917E-07  0.2601337E-08 -0.1196137E+02  0.4074403E+01  0.8822828E-15 -0.1746276E-15
  0.1000000E+00  0.9600656E+01 -0.2294924E+01  0.4421269E-08 -0.1104451E-07 -0.7860850E-03  0.1092566E-02 -0.5766917E-07  0.2662956E-08 -0.1196137E+02  0.3773631E+01  0.8822828E-15 -0.1666245E-15
  0.2000000E+00  0.9600656E+01 -0.1778619E+01  0.4421269E-08 -0.8258056E-08 -0.7860850E-03  0.8932660E-03 -0.5766917E-07  0.2804439E-08 -0.1196137E+02  0.2919281E+01  0.8822828E-15 -0.1429047E-15
  0.3000000E+00  0.9600656E+01 -0.1009393E+01  0.4421269E-08 -0.4126337E-08 -0.7860850E-03  0.5922125E-03 -0.5766917E-07  0.2907250E-08 -0.1196137E+02  0.1647064E+01  0.8822828E-15 -0.1044265E-15
  0.4000000E+00  0.9600656E+01 -0.1078344E+00  0.4421269E-08  0.6714700E-09 -0.7860850E-03  0.2304223E-03 -0.5766917E-07  0.2809883E-08 -0.1196137E+02  0.1573182E+00  0.8822828E-15 -0.5306132E-16
  0.5000000E+00  0.9600656E+01  0.7868642E+00  0.4421269E-08  0.5347896E-08 -0.7860850E-03 -0.1447846E-03 -0.5766917E-07  0.2353540E-08 -0.1196137E+02 -0.1318835E+01  0.8822828E-15  0.8094395E-17
  0.6000000E+00  0.9600656E+01  0.1540038E+01  0.4421269E-08  0.9137364E-08 -0.7860850E-03 -0.4873692E-03 -0.5766917E-07  0.1431019E-08 -0.1196137E+02 -0.2558011E+01  0.8822828E-15  0.7446022E-16
  0.7000000E+00  0.9600656E+01  0.2043391E+01  0.4421269E-08  0.1142244E-07 -0.7860850E-03 -0.7593717E-03 -0.5766917E-07  0.2749844E-10 -0.1196137E+02 -0.3380916E+01  0.8822828E-15  0.1399029E-15
  0.8000000E+00  0.9600656E+01  0.2231765E+01  0.4421269E-08  0.1183519E-07 -0.7860850E-03 -0.9356751E-03 -0.5766917E-07 -0.1756737E-08 -0.1196137E+02 -0.3680240E+01  0.8822828E-15  0.1969761E-15
  0.9000000E+00  0.9600656E+01  0.2092057E+01  0.4421269E-08  0.1031689E-07 -0.7860850E-03 -0.1005991E-02 -0.5766917E-07 -0.3708130E-08 -0.1196137E+02 -0.3435441E+01  0.8822828E-15  0.2375422E-15
  0.1000000E+01  0.9600656E+01  0.1662996E+01  0.4421269E-08  0.7126264E-08 -0.7860850E-03 -0.9739839E-03 -0.5766917E-07 -0.5527889E-08 -0.1196137E+02 -0.2712280E+01  0.8822828E-15  0.2537730E-15
  0.1100000E+01  0.9600656E+01  0.1026174E+01  0.4421269E-08  0.2795245E-08 -0.7860850E-03 -0.8540700E-03 -0.5766917E-07 -0.6882178E-08 -0.1196137E+02 -0.1647761E+01  0.8822828E-15  0.2394364E-15
  0.1200000E+01  0.9600656E+01  0.2902988E+00  0.4421269E-08 -0.1960340E-08 -0.7860850E-03 -0.6669352E-03 -0.5766917E-07 -0.7465726E-08 -0.1196137E+02 -0.4237726E+00  0.8822828E-15  0.1912867E-15
  0.1300000E+01  0.9600656E+01 -0.4282378E+00  0.4421269E-08 -0.6359934E-08 -0.7860850E-03 -0.4349882E-03 -0.5766917E-07 -0.7066605E-08 -0.1196137E+02  0.7654300E+00  0.8822828E-15  0.1103019E-15
  0.1400000E+01  0.9600656E+01 -0.1024864E+01  0.4421269E-08 -0.9687345E-08 -0.7860850E-03 -0.1788729E-03 -0.5766917E-07 -0.5618928E-08 -0.1196137E+02  0.1745824E+01  0.8822828E-15  0.2482828E-17
  0.1500000E+01  0.9600656E+01 -0.1422961E+01  0.4421269E-08 -0.1140830E-07 -0.7860850E-03  0.8424078E-04 -0.5766917E-07 -0.3231846E-08 -0.1196137E+02  0.2390581E+01  0.8822828E-15 -0.1210505E-15
  0.1600000E+01  0.9600656E+01 -0.1584001E+01  0.4421269E-08 -0.1125695E-07 -0.7860850E-03  0.3404295E-03 -0.5766917E-07 -0.1872623E-09 -0.1196137E+02  0.2636966E+01  0.8822828E-15 -0.2448434E-15
  0.1700000E+01  0.9600656E+01 -0.1510323E+01  0.4421269E-08 -0.9277264E-08 -0.7860850E-03  0.5773014E-03 -0.5766917E-07  0.3095647E-08 -0.1196137E+02  0.2490901E+01  0.8822828E-15 -0.3508129E-15
  0.1800000E+01  0.9600656E+01 -0.1240626E+01  0.4421269E-08 -0.5812774E-08 -0.7860850E-03  0.7816940E-03 -0.5766917E-07  0.6124491E-08 -0.1196137E+02  0.2019295E+01  0.8822828E-15 -0.4207420E-15
  0.1900000E+01  0.9600656E+01 -0.8395909E+00  0.4421269E-08 -0.1446817E-08 -0.7860850E-03  0.9378910E-03 -0.5766917E-07  0.8415787E-08 -0.1196137E+02  0.1332515E+01  0.8822828E-15 -0.4392415E-15
  0.2000000E+01  0.9600656E+01 -0.3840317E+00  0.4421269E-08  0.3096309E-08 -0.7860850E-03  0.1027361E-02 -0.5766917E-07  0.9580644E-08 -0.1196137E+02  0.5609990E+00  0.8822828E-15 -0.3967203E-15
  0.2100000E+01  0.9600656E+01  0.5156360E-01  0.4421269E-08  0.7072397E-08 -0.7860850E-03  0.1030578E-02 -0.5766917E-07  0.9397900E-08 -0.1196137E+02 -0.1691684E+00  0.8822828E-15 -0.2918147E-15
  0.2200000E+01  0.9600656E+01  0.4073757E+00  0.4421269E-08  0.9840310E-08 -0.7860850E-03  0.9308834E-03 -0.5766917E-07  0.7860369E-08 -0.1196137E+02 -0.7571459E+00  0.8822828E-15 -0.1327531E-15
  0.2300000E+01  0.9600656E+01  0.6464117E+00  0.4421269E-08  0.1096638E-07 -0.7860850E-03  0.7196721E-03 -0.5766917E-07  0.5184197E-08 -0.1196137E+02 -0.1141177E+01  0.8822828E-15  0.6275094E-16
  0.2400000E+01  0.9600656E+01  0.7573792E+00  0.4421269E-08  0.1029300E-07 -0.7860850E-03  0.4016294E-03 -0.5766917E-07  0.1778067E-08 -0.1196137E+02 -0.1303515E+01  0.8822828E-15  0.2692493E-15
  0.2500000E+01  0.9600656E+01  0.7523587E+00  0.4421269E-08  0.7960568E-08 -0.7860850E-03 -0.1491454E-05 -0.5766917E-07 -0.1823428E-08 -0.1196137E+02 -0.1266517E+01  0.8822828E-15  0.4568498E-15
  0.2600000E+01  0.9600656E+01  0.6603514E+00  0.4421269E-08  0.4379578E-08 -0.7860850E-03 -0.4499701E-03 -0.5766917E-07 -0.5051140E-08 -0.1196137E+02 -0.1081698E+01  0.8822828E-15  0.5956369E-15
  0.2700000E+01  0.9600656E+01  0.5185018E+00  0.4421269E-08  0.1584482E-09 -0.7860850E-03 -0.8889862E-03 -0.5766917E-07 -0.7400855E-08 -0.1196137E+02 -0.8147472E+00  0.8822828E-15  0.6605477E-15
  0.2800000E+01  0.9600656E+01  0.3630938E+00  0.4421269E-08 -0.4000508E-08 -0.7860850E-03 -0.1255396E-02 -0.5766917E-07 -0.8522742E-08 -0.1196137E+02 -0.5300416E+00  0.8822828E-15  0.6358878E-15
  0.2900000E+01  0.9600656E+01  0.2222243E+00  0.4421269E-08 -0.7418882E-08 -0.7860850E-03 -0.1487578E-02 -0.5766917E-07 -0.8283433E-08 -0.1196137E+02 -0.2778983E+00  0.8822828E-15  0.5186431E-15
  0.3000000E+01  0.9600656E+01  0.1115146E+00  0.4421269E-08 -0.9553892E-08 -0.7860850E-03 -0.1536735E-02 -0.5766917E-07 -0.6788761E-08 -0.1196137E+02 -0.8690736E-01  0.8822828E-15  0.3199154E-15
  0.3100000E+01  0.9600656E+01  0.3340102E-01  0.4421269E-08 -0.1008558E-07 -0.7860850E-03 -0.1377434E-02 -0.5766917E-07 -0.4362099E-08 -0.1196137E+02  0.3766785E-01  0.8822828E-15  0.6406769E-16
  0.3200000E+01  0.9600656E+01 -0.2028179E-01  0.4421269E-08 -0.8965126E-08 -0.7860850E-03 -0.1015104E-02 -0.5766917E-07 -0.1481881E-08 -0.1196137E+02  0.1098255E+00  0.8822828E-15 -0.2143995E-15
  0.3300000E+01  0.9600656E+01 -0.6344244E-01  0.4421269E-08 -0.6417010E-08 -0.7860850E-03 -0.4885660E-03 -0.5766917E-07  0.1310203E-08 -0.1196137E+02  0.1547423E+00  0.8822828E-15 -0.4758523E-15
  0.3400000E+01  0.9600656E+01 -0.1100232E+00  0.4421269E-08 -0.2895567E-08 -0.7860850E-03  0.1334457E-03 -0.5766917E-07  0.3512881E-08 -0.1196137E+02  0.1990301E+00  0.8822828E-15 -0.6816142E-15
  0.3500000E+01  0.9600656E+01 -0.1689494E+00  0.4421269E-08  0.9958783E-09 -0.7860850E-03  0.7616635E-03 -0.5766917E-07  0.4760793E-08 -0.1196137E+02  0.2618761E+00  0.8822828E-15 -0.8001323E-15
  0.3600000E+01  0.9600656E+01 -0.2409585E+00  0.4421269E-08  0.4608999E-08 -0.7860850E-03  0.1300265E-02 -0.5766917E-07  0.4893169E-08 -0.1196137E+02  0.3491536E+00  0.8822828E-15 -0.8121604E-15
  0.3700000E+01  0.9600656E+01 -0.3179910E+00  0.4421269E-08  0.7359362E-08 -0.7860850E-03  0.1663052E-02 -0.5766917E-07  0.3981866E-08 -0.1196137E+02  0.4517417E+00  0.8822828E-15 -0.7140228E-15
  0.3800000E+01  0.9600656E+01 -0.3851635E+00  0.4421269E-08  0.8822052E-08 -0.7860850E-03  0.1788908E-02 -0.5766917E-07  0.2313002E-08 -0.1196137E+02  0.5481820E+00  0.8822828E-15 -0.5183664E-15
  0.3900000E+01  0.9600656E+01 -0.4247180E+00  0.4421269E-08  0.8797930E-08 -0.7860850E-03  0.1653481E-02 -0.5766917E-07  0.3254322E-09 -0.1196137E+02  0.6107700E+00  0.8822828E-15 -0.2522350E-15
  0.4000000E+01  0.9600656E+01 -0.4208775E+00  0.4421269E-08  0.7340285E-08 -0.7860850E-03  0.1274704E-02 -0.5766917E-07 -0.1482057E-08 -0.1196137E+02  0.6133798E+00  0.8822828E-15  0.4719250E-16
  0.4100000E+01  0.9600656E+01 -0.3643785E+00  0.4421269E-08  0.4738247E-08 -0.7860850E-03  0.7108373E-03 -0.5766917E-07 -0.2656422E-08 -0.1196137E+02  0.5390111E+00  0.8822828E-15  0.3384737E-15
  0.4200000E+01  0.9600656E+01 -0.2555446E+00  0.4421269E-08  0.1461008E-08 -0.7860850E-03  0.5111785E-04 -0.5766917E-07 -0.2887740E-08 -0.1196137E+02  0.3851776E+00  0.8822828E-15  0.5823319E-15
  0.4300000E+01  0.9600656E+01 -0.1051648E+00  0.4421269E-08 -0.1926543E-08 -0.7860850E-03 -0.5993989E-03 -0.5766917E-07 -0.2078480E-08 -0.1196137E+02  0.1658576E+00  0.8822828E-15  0.7475332E-15
  0.4400000E+01  0.9600656E+01  0.6704576E-01  0.4421269E-08 -0.4861805E-08 -0.7860850E-03 -0.1138115E-02 -0.5766917E-07 -0.3700507E-09 -0.1196137E+02 -0.9044345E-01  0.8822828E-15  0.8152245E-15
  0.4500000E+01  0.9600656E+01  0.2360371E+00  0.4421269E-08 -0.6878673E-08 -0.7860850E-03 -0.1482821E-02 -0.5766917E-07  0.1879581E-08 -0.1196137E+02 -0.3460135E+00  0.8822828E-15  0.7810449E-15
  0.4600000E+01  0.9600656E+01  0.3762546E+00  0.4421269E-08 -0.7682278E-08 -0.7860850E-03 -0.1585925E-02 -0.5766917E-07  0.4163694E-08 -0.1196137E+02 -0.5613929E+00  0.8822828E-15  0.6547793E-15
  0.4700000E+01  0.9600656E+01  0.4666121E+00  0.4421269E-08 -0.7192001E-08 -0.7860850E-03 -0.1442242E-02 -0.5766917E-07  0.5927518E-08 -0.1196137E+02 -0.7032455E+00  0.8822828E-15  0.4577775E-15
  0.4800000E+01  0.9600656E+01  0.4945192E+00  0.4421269E-08 -0.5546593E-08 -0.7860850E-03 -0.1088884E-02 -0.5766917E-07  0.6682434E-08 -0.1196137E+02 -0.7508860E+00  0.8822828E-15  0.2187670E-15
  0.4900000E+01  0.9600656E+01  0.4581167E+00  0.4421269E-08 -0.3071709E-08 -0.7860850E-03 -0.5972904E-03 -0.5766917E-07  0.6111384E-08 -0.1196137E+02 -0.7000785E+00  0.8822828E-15 -0.3105970E-16
  0.5000000E+01  0.9600656E+01  0.3662693E+00  0.4421269E-08 -0.2169779E-09 -0.7860850E-03 -0.5903998E-04 -0.5766917E-07  0.4144099E-08 -0.1196137E+02 -0.5633272E+00  0.8822828E-15 -0.2627257E-15
  0.5100000E+01  0.9600656E+01  0.2364127E+00  0.4421269E-08  0.2525500E-08 -0.7860850E-03  0.4317480E-03 -0.5766917E-07  0.9869567E-09 -0.1196137E+02 -0.3667581E+00  0.8822828E-15 -0.4531114E-15
  0.5200000E+01  0.9600656E+01  0.9078391E-01  0.4421269E-08  0.4706425E-08 -0.7860850E-03  0.7959334E-03 -0.5766917E-07 -0.2899960E-08 -0.1196137E+02 -0.1443742E+00  0.8822828E-15 -0.5870343E-15
  0.5300000E+01  0.9600656E+01 -0.4807653E-01  0.4421269E-08  0.5993396E-08 -0.7860850E-03  0.9833627E-03 -0.5766917E-07 -0.6875400E-08 -0.1196137E+02  0.6893097E-01  0.8822828E-15 -0.6576303E-15
  0.5400000E+01  0.9600656E+01 -0.1615651E+00  0.4421269E-08  0.6221657E-08 -0.7860850E-03  0.9807312E-03 -0.5766917E-07 -0.1022679E-07 -0.1196137E+02  0.2440541E+00  0.8822828E-15 -0.6652783E-15
  0.5500000E+01  0.9600656E+01 -0.2380937E+00  0.4421269E-08  0.5413515E-08 -0.7860850E-03  0.8118530E-03 -0.5766917E-07 -0.1229747E-07 -0.1196137E+02  0.3626121E+00  0.8822828E-15 -0.6156019E-15
  0.5600000E+01  0.9600656E+01 -0.2744290E+00  0.4421269E-08  0.3764648E-08 -0.7860850E-03  0.5305672E-03 -0.5766917E-07 -0.1260846E-07 -0.1196137E+02  0.4191816E+00  0.8822828E-15 -0.5172257E-15
  0.5700000E+01  0.9600656E+01 -0.2751210E+00  0.4421269E-08  0.1601226E-08 -0.7860850E-03  0.2079239E-03 -0.5766917E-07 -0.1095221E-07 -0.1196137E+02  0.4205396E+00  0.8822828E-15 -0.3799125E-15
  0.5800000E+01  0.9600656E+01 -0.2502874E+00  0.4421269E-08 -0.6832181E-09 -0.7860850E-03 -0.8352935E-04 -0.5766917E-07 -0.7441046E-08 -0.1196137E+02  0.3822953E+00  0.8822828E-15 -0.2135351E-15
  0.5900000E+01  0.9600656E+01 -0.2123862E+00  0.4421269E-08 -0.2699173E-08 -0.7860850E-03 -0.2850487E-03 -0.5766917E-07 -0.2501259E-08 -0.1196137E+02  0.3238848E+00  0.8822828E-15 -0.2799198E-16
  0.6000000E+01  0.9600656E+01 -0.1728053E+00  0.4421269E-08 -0.4127709E-08 -0.7860850E-03 -0.3633731E-03 -0.5766917E-07  0.3186860E-08 -0.1196137E+02  0.2632156E+00  0.8822828E-15  0.1661139E-15
  0.6100000E+01  0.9600656E+01 -0.1390897E+00  0.4421269E-08 -0.4770859E-08 -0.7860850E-03 -0.3164717E-03 -0.5766917E-07  0.8792790E-08 -0.1196137E+02  0.2122659E+00  0.8822828E-15  0.3564896E-15
  0.6200000E+01  0.9600656E+01 -0.1134437E+00  0.4421269E-08 -0.4577879E-08 -0.7860850E-03 -0.1723084E-03 -0.5766917E-07  0.1346594E-07 -0.1196137E+02  0.1746434E+00  0.8822828E-15  0.5284622E-15
  0.6300000E+01  0.9600656E+01 -0.9280819E-01  0.4421269E-08 -0.3644134E-08 -0.7860850E-03  0.1890275E-04 -0.5766917E-07  0.1647020E-07 -0.1196137E+02  0.1456078E+00  0.8822828E-15  0.6651124E-15
  0.6400000E+01  0.9600656E+01 -0.7041814E-01  0.4421269E-08 -0.2184426E-08 -0.7860850E-03  0.1971225E-03 -0.5766917E-07  0.1730086E-07 -0.1196137E+02  0.1144309E+00  0.8822828E-15  0.7485871E-15
  0.6500000E+01  0.9600656E+01 -0.3840171E-01  0.4421269E-08 -0.4872263E-09 -0.7860850E-03  0.3067867E-03 -0.5766917E-07  0.1576494E-07 -0.1196137E+02  0.6842981E-01  0.8822828E-15  0.7625666E-15
  0.6600000E+01  0.9600656E+01  0.9285371E-02  0.4421269E-08  0.1140994E-08 -0.7860850E-03  0.3098394E-03 -0.5766917E-07  0.1201281E-07 -0.1196137E+02 -0.2423026E-02  0.8822828E-15  0.6955539E-15
  0.6700000E+01  0.9600656E+01  0.7434311E-01  0.4421269E-08  0.2430554E-08 -0.7860850E-03  0.1946800E-03 -0.5766917E-07  0.6517111E-08 -0.1196137E+02 -0.1014820E+00  0.8822828E-15  0.5442774E-15
  0.6800000E+01  0.9600656E+01  0.1526960E+00  0.4421269E-08  0.3192869E-08 -0.7860850E-03 -0.2086672E-04 -0.5766917E-07  0.3611414E-11 -0.1196137E+02 -0.2230653E+00  0.8822828E-15  0.3163999E-15
  0.6900000E+01  0.9600656E+01  0.2345434E+00  0.4421269E-08  0.3346999E-08 -0.7860850E-03 -0.2931499E-03 -0.5766917E-07 -0.6654377E-08 -0.1196137E+02 -0.3523814E+00  0.8822828E-15  0.3167304E-16
  0.7000000E+01  0.9600656E+01  0.3059334E+00  0.4421269E-08  0.2924947E-08 -0.7860850E-03 -0.5620085E-03 -0.5766917E-07 -0.1256071E-07 -0.1196137E+02 -0.4678434E+00  0.8822828E-15 -0.2790158E-15
  0.7100000E+01  0.9600656E+01  0.3515495E+00  0.4421269E-08  0.2056349E-08 -0.7860850E-03 -0.7637881E-03 -0.5766917E-07 -0.1692173E-07 -0.1196137E+02 -0.5453133E+00  0.8822828E-15 -0.5769053E-15
  0.7200000E+01  0.9600656E+01  0.3580954E+00  0.4421269E-08  0.9368947E-09 -0.7860850E-03 -0.8452162E-03 -0.5766917E-07 -0.1915395E-07 -0.1196137E+02 -0.5633471E+00  0.8822828E-15 -0.8206177E-15
  0.7300000E+01  0.9600656E+01  0.3175352E+00  0.4421269E-08 -0.2124324E-09 -0.7860850E-03 -0.7752135E-03 -0.5766917E-07 -0.1895988E-07 -0.1196137E+02 -0.5082999E+00  0.8822828E-15 -0.9726174E-15
  0.7400000E+01  0.9600656E+01  0.2294287E+00  0.4421269E-08 -0.1187314E-08 -0.7860850E-03 -0.5521427E-03 -0.5766917E-07 -0.1636304E-07 -0.1196137E+02 -0.3781061E+00  0.8822828E-15 -0.1005769E-14
  0.7500000E+01  0.9600656E+01  0.1018344E+00  0.4421269E-08 -0.1835260E-08 -0.7860850E-03 -0.2050156E-03 -0.5766917E-07 -0.1169913E-07 -0.1196137E+02 -0.1839049E+00  0.8822828E-15 -0.9087188E-15
  0.7600000E+01  0.9600656E+01 -0.4950102E-01  0.4421269E-08 -0.2078289E-08 -0.7860850E-03  0.2115449E-03 -0.5766917E-07 -0.5566744E-08 -0.1196137E+02  0.5096266E-01  0.8822828E-15 -0.6889670E-15
  0.7700000E+01  0.9600656E+01 -0.2035337E+00  0.4421269E-08 -0.1919905E-08 -0.7860850E-03  0.6274955E-03 -0.5766917E-07  0.1254315E-08 -0.1196137E+02  0.2944171E+00  0.8822828E-15 -0.3728801E-15
  0.7800000E+01  0.9600656E+01 -0.3374549E+00  0.4421269E-08 -0.1436579E-08 -0.7860850E-03  0.9705807E-03 -0.5766917E-07  0.7905292E-08 -0.1196137E+02  0.5109342E+00  0.8822828E-15 -0.2430760E-17
  0.7900000E+01  0.9600656E+01 -0.4306809E+00  0.4421269E-08 -0.7564903E-09 -0.7860850E-03  0.1179883E-02 -0.5766917E-07  0.1355821E-07 -0.1196137E+02  0.6676533E+00  0.8822828E-15  0.3709374E-15
  0.8000000E+01  0.9600656E+01 -0.4685242E+00  0.4421269E-08 -0.3087803E-10 -0.7860850E-03  0.1217005E-02 -0.5766917E-07  0.1751875E-07 -0.1196137E+02  0.7401249E+00  0.8822828E-15  0.6942996E-15
  0.8100000E+01  0.9600656E+01 -0.4448086E+00  0.4421269E-08  0.5963637E-09 -0.7860850E-03  0.1072782E-02 -0.5766917E-07  0.1931102E-07 -0.1196137E+02  0.7165692E+00  0.8822828E-15  0.9217506E-15
  0.8200000E+01  0.9600656E+01 -0.3629573E+00  0.4421269E-08  0.1014774E-08 -0.7860850E-03  0.7683900E-03 -0.5766917E-07  0.1873375E-07 -0.1196137E+02  0.5998967E+00  0.8822828E-15  0.1021865E-14
  0.8300000E+01  0.9600656E+01 -0.2353385E+00  0.4421269E-08  0.1164862E-08 -0.7860850E-03  0.3508263E-03 -0.5766917E-07  0.1588246E-07 -0.1196137E+02  0.4071129E+00  0.8822828E-15  0.9827853E-15
  0.8400001E+01  0.9600656E+01 -0.8104910E-01  0.4421269E-08  0.1044592E-08 -0.7860850E-03 -0.1160072E-03 -0.5766917E-07  0.1113495E-07 -0.1196137E+02  0.1663147E+00  0.8822828E-15  0.8139832E-15
  0.8500000E+01  0.9600656E+01  0.7743435E-01  0.4421269E-08  0.7047126E-09 -0.7860850E-03 -0.5627858E-03 -0.5766917E-07  0.5101842E-08 -0.1196137E+02 -0.8813406E-01  0.8822828E-15  0.5443709E-15
  0.8600000E+01  0.9600656E+01  0.2180691E+00  0.4421269E-08  0.2347027E-09 -0.7860850E-03 -0.9264411E-03 -0.5766917E-07 -0.1451766E-08 -0.1196137E+02 -0.3212971E+00  0.8822828E-15  0.2171246E-15
  0.8700000E+01  0.9600656E+01  0.3227857E+00  0.4421269E-08 -0.2569582E-09 -0.7860850E-03 -0.1159817E-02 -0.5766917E-07 -0.7703855E-08 -0.1196137E+02 -0.5031465E+00  0.8822828E-15 -0.1177835E-15
  0.8800000E+01  0.9600656E+01  0.3801529E+00  0.4421269E-08 -0.6645270E-09 -0.7860850E-03 -0.1237809E-02 -0.5766917E-07 -0.1288139E-07 -0.1196137E+02 -0.6129274E+00  0.8822828E-15 -0.4120258E-15
  0.8900001E+01  0.9600656E+01  0.3866912E+00  0.4421269E-08 -0.9042701E-09 -0.7860850E-03 -0.1159102E-02 -0.5766917E-07 -0.1635957E-07 -0.1196137E+02 -0.6416536E+00  0.8822828E-15 -0.6267063E-15
  0.9000000E+01  0.9600656E+01  0.3467133E+00  0.4421269E-08 -0.9285641E-09 -0.7860850E-03 -0.9437970E-03 -0.5766917E-07 -0.1774267E-07 -0.1196137E+02 -0.5924783E+00  0.8822828E-15 -0.7381964E-15
  0.9100000E+01  0.9600656E+01  0.2708222E+00  0.4421269E-08 -0.7325034E-09 -0.7860850E-03 -0.6278379E-03 -0.5766917E-07 -0.1691421E-07 -0.1196137E+02 -0.4790412E+00  0.8822828E-15 -0.7409709E-15
  0.9200000E+01  0.9600656E+01  0.1734497E+00  0.4421269E-08 -0.3529816E-09 -0.7860850E-03 -0.2557732E-03 -0.5766917E-07 -0.1404925E-07 -0.1196137E+02 -0.3222538E+00  0.8822828E-15 -0.6471157E-15
  0.9300000E+01  0.9600656E+01  0.7000104E-01  0.4421269E-08  0.1393392E-09 -0.7860850E-03  0.1265558E-03 -0.5766917E-07 -0.9586056E-08 -0.1196137E+02 -0.1462755E+00  0.8822828E-15 -0.4827420E-15
  0.9400001E+01  0.9600656E+01 -0.2582787E-01  0.4421269E-08  0.6528597E-09 -0.7860850E-03  0.4780098E-03 -0.5766917E-07 -0.4160909E-08 -0.1196137E+02  0.2554533E-01  0.8822828E-15 -0.2821555E-15
  0.9500000E+01  0.9600656E+01 -0.1040497E+00  0.4421269E-08  0.1090761E-08 -0.7860850E-03  0.7660115E-03 -0.5766917E-07  0.1485164E-08 -0.1196137E+02  0.1740182E+00  0.8822828E-15 -0.8102425E-16
  0.9600000E+01  0.9600656E+01 -0.1594047E+00  0.4421269E-08  0.1366749E-08 -0.7860850E-03  0.9680992E-03 -0.5766917E-07  0.6614271E-08 -0.1196137E+02  0.2862757E+00  0.8822828E-15  0.9015101E-16
  0.9700000E+01  0.9600656E+01 -0.1912809E+00  0.4421269E-08  0.1418924E-08 -0.7860850E-03  0.1071554E-02 -0.5766917E-07  0.1059648E-07 -0.1196137E+02  0.3564764E+00  0.8822828E-15  0.2109647E-15
  0.9800000E+01  0.9600656E+01 -0.2027216E+00  0.4421269E-08  0.1219806E-08 -0.7860850E-03  0.1071954E-02 -0.5766917E-07  0.1299674E-07 -0.1196137E+02  0.3851968E+00  0.8822828E-15  0.2736837E-15
  0.9900001E+01  0.9600656E+01 -0.1988313E+00  0.4421269E-08  0.7814583E-09 -0.7860850E-03  0.9715577E-03 -0.5766917E-07  0.1362863E-07 -0.1196137E+02  0.3778114E+00  0.8822828E-15  0.2830603E-15
Zone t="DoF    2",I=   100,F=POINT
  0.0000000E+00  0.7866475E-08  0.6116383E-08  0.9601658E+01 -0.2477158E+01 -0.3262645E-05 -0.2417823E-07  0.1196248E+02 -0.4075257E+01  0.6956864E-07 -0.2361403E-07  0.1022544E-08 -0.6333463E-09
  0.1000000E+00  0.7866475E-08  0.5630700E-08  0.9601658E+01 -0.2295414E+01 -0.3262645E-05 -0.1247683E-07  0.1196248E+02 -0.3774446E+01  0.6956864E-07 -0.2207608E-07  0.1022544E-08 -0.5822598E-09
  0.2000000E+00  0.7866475E-08  0.4260945E-08  0.9601658E+01 -0.1779045E+01 -0.3262645E-05  0.1866534E-07  0.1196248E+02 -0.2919983E+01  0.6956864E-07 -0.1768311E-07  0.1022544E-08 -0.4378290E-09
  0.3000000E+00  0.7866475E-08  0.2251921E-08  0.9601658E+01 -0.1009717E+01 -0.3262645E-05  0.5843413E-07  0.1196248E+02 -0.1647586E+01  0.6956864E-07 -0.1106270E-07  0.1022544E-08 -0.2249252E-09
  0.4000000E+00  0.7866475E-08 -0.4177726E-10  0.9601658E+01 -0.1080234E+00 -0.3262645E-05  0.9211924E-07  0.1196248E+02 -0.1576048E+00  0.6956864E-07 -0.3149814E-08  0.1022544E-08  0.2007195E-10
  0.5000000E+00  0.7866475E-08 -0.2224348E-08  0.9601658E+01  0.7868350E+00 -0.3262645E-05  0.1052211E-06  0.1196248E+02  0.1318822E+01  0.6956864E-07  0.4959382E-08  0.1022544E-08  0.2558647E-09
  0.6000000E+00  0.7866475E-08 -0.3934277E-08  0.9601658E+01  0.1540181E+01 -0.3262645E-05  0.8768456E-07  0.1196248E+02  0.2558286E+01  0.6956864E-07  0.1217562E-07  0.1022544E-08  0.4436311E-09
  0.7000000E+00  0.7866475E-08 -0.4911420E-08  0.9601658E+01  0.2043701E+01 -0.3262645E-05  0.3717993E-07  0.1196248E+02  0.3381464E+01  0.6956864E-07  0.1757808E-07  0.1022544E-08  0.5538337E-09
  0.8000000E+00  0.7866475E-08 -0.5042346E-08  0.9601658E+01  0.2232221E+01 -0.3262645E-05 -0.3944463E-07  0.1196248E+02  0.3681017E+01  0.6956864E-07  0.2054308E-07  0.1022544E-08  0.5711858E-09
  0.9000000E+00  0.7866475E-08 -0.4375169E-08  0.9601658E+01  0.2092618E+01 -0.3262645E-05 -0.1269952E-06  0.1196248E+02  0.3436374E+01  0.6956864E-07  0.2081996E-07  0.1022544E-08  0.4968914E-09
  0.1000000E+01  0.7866475E-08 -0.3101652E-08  0.9601658E+01  0.1663607E+01 -0.3262645E-05 -0.2049714E-06  0.1196248E+02  0.2713269E+01  0.6956864E-07  0.1854439E-07  0.1022544E-08  0.3478154E-09
  0.1100000E+01  0.7866475E-08 -0.1511090E-08  0.9601658E+01  0.1026768E+01 -0.3262645E-05 -0.2521933E-06  0.1196248E+02  0.1648695E+01  0.6956864E-07  0.1419042E-07  0.1022544E-08  0.1528327E-09
  0.1200000E+01  0.7866475E-08  0.7359530E-10  0.9601658E+01  0.2908047E+00 -0.3262645E-05 -0.2519913E-06  0.1196248E+02  0.4245363E+00  0.6956864E-07  0.8473513E-08  0.1022544E-08 -0.5286405E-10
  0.1300000E+01  0.7866475E-08  0.1363714E-08  0.9601658E+01 -0.4278851E+00 -0.3262645E-05 -0.1967480E-06  0.1196248E+02 -0.7649356E+00  0.6956864E-07  0.2224074E-08  0.1022544E-08 -0.2343551E-09
  0.1400000E+01  0.7866475E-08  0.2162131E-08  0.9601658E+01 -0.1024714E+01 -0.3262645E-05 -0.9066857E-07  0.1196248E+02 -0.1745669E+01  0.6956864E-07 -0.3744576E-08  0.1022544E-08 -0.3632069E-09
  0.1500000E+01  0.7866475E-08  0.2398196E-08  0.9601658E+01 -0.1423040E+01 -0.3262645E-05  0.4998632E-07  0.1196248E+02 -0.2390795E+01  0.6956864E-07 -0.8751364E-08  0.1022544E-08 -0.4221616E-09
  0.1600000E+01  0.7866475E-08  0.2133410E-08  0.9601658E+01 -0.1584307E+01 -0.3262645E-05  0.1994281E-06  0.1196248E+02 -0.2637531E+01  0.6956864E-07 -0.1232770E-07  0.1022544E-08 -0.4074910E-09
  0.1700000E+01  0.7866475E-08  0.1537479E-08  0.9601658E+01 -0.1510823E+01 -0.3262645E-05  0.3272329E-06  0.1196248E+02 -0.2491752E+01  0.6956864E-07 -0.1425322E-07  0.1022544E-08 -0.3286978E-09
  0.1800000E+01  0.7866475E-08  0.8408513E-09  0.9601658E+01 -0.1241262E+01 -0.3262645E-05  0.4046435E-06  0.1196248E+02 -0.2020326E+01  0.6956864E-07 -0.1454630E-07  0.1022544E-08 -0.2057716E-09
  0.1900000E+01  0.7866475E-08  0.2749244E-09  0.9601658E+01 -0.8402832E+00 -0.3262645E-05  0.4109576E-06  0.1196248E+02 -0.1333593E+01  0.6956864E-07 -0.1341726E-07  0.1022544E-08 -0.6467241E-10
  0.2000000E+01  0.7866475E-08  0.1372347E-10  0.9601658E+01 -0.3846929E+00 -0.3262645E-05  0.3385896E-06  0.1196248E+02 -0.5619863E+00  0.6956864E-07 -0.1119842E-07  0.1022544E-08  0.6797916E-10
  0.2100000E+01  0.7866475E-08  0.1304404E-09  0.9601658E+01  0.5101750E-01 -0.3262645E-05  0.1956212E-06  0.1196248E+02  0.1683986E+00  0.6956864E-07 -0.8267955E-08  0.1022544E-08  0.1699239E-09
  0.2200000E+01  0.7866475E-08  0.5787984E-09  0.9601658E+01  0.4070135E+00 -0.3262645E-05  0.5142319E-08  0.1196248E+02  0.7566887E+00  0.6956864E-07 -0.4983691E-08  0.1022544E-08  0.2270449E-09
  0.2300000E+01  0.7866475E-08  0.1203699E-08  0.9601658E+01  0.6462764E+00 -0.3262645E-05 -0.1986473E-06  0.1196248E+02  0.1141083E+01  0.6956864E-07 -0.1638534E-08  0.1022544E-08  0.2352576E-09
  0.2400000E+01  0.7866475E-08  0.1778975E-08  0.9601658E+01  0.7574828E+00 -0.3262645E-05 -0.3768905E-06  0.1196248E+02  0.1303784E+01  0.6956864E-07  0.1556729E-08  0.1022544E-08  0.2002749E-09
  0.2500000E+01  0.7866475E-08  0.2063953E-08  0.9601658E+01  0.7526808E+00 -0.3262645E-05 -0.4938310E-06  0.1196248E+02  0.1267098E+01  0.6956864E-07  0.4464754E-08  0.1022544E-08  0.1354616E-09
  0.2600000E+01  0.7866475E-08  0.1866117E-08  0.9601658E+01  0.6608430E+00 -0.3262645E-05 -0.5242806E-06  0.1196248E+02  0.1082501E+01  0.6956864E-07  0.6994725E-08  0.1022544E-08  0.5835686E-10
  0.2700000E+01  0.7866475E-08  0.1095550E-08  0.9601658E+01  0.5190930E+00 -0.3262645E-05 -0.4592029E-06  0.1196248E+02  0.8156561E+00  0.6956864E-07  0.9068502E-08  0.1022544E-08 -0.1332339E-10
  0.2800000E+01  0.7866475E-08 -0.2017443E-09  0.9601658E+01  0.3637055E+00 -0.3262645E-05 -0.3081632E-06  0.1196248E+02  0.5309343E+00  0.6956864E-07  0.1059213E-07  0.1022544E-08 -0.6534993E-10
  0.2900000E+01  0.7866475E-08 -0.1840170E-08  0.9601658E+01  0.2227792E+00 -0.3262645E-05 -0.9800791E-07  0.1196248E+02  0.2786636E+00  0.6956864E-07  0.1144293E-07  0.1022544E-08 -0.8957868E-10
  0.3000000E+01  0.7866475E-08 -0.3522805E-08  0.9601658E+01  0.1119486E+00 -0.3262645E-05  0.1320607E-06  0.1196248E+02  0.8746240E-01  0.6956864E-07  0.1147772E-07  0.1022544E-08 -0.8503395E-10
  0.3100000E+01  0.7866475E-08 -0.4896998E-08  0.9601658E+01  0.3367046E-01 -0.3262645E-05  0.3381219E-06  0.1196248E+02 -0.3737052E-01  0.6956864E-07  0.1056163E-07  0.1022544E-08 -0.5737467E-10
  0.3200000E+01  0.7866475E-08 -0.5626532E-08  0.9601658E+01 -0.2019476E-01 -0.3262645E-05  0.4803364E-06  0.1196248E+02 -0.1097932E+00  0.6956864E-07  0.8611532E-08  0.1022544E-08 -0.1698418E-10
  0.3300000E+01  0.7866475E-08 -0.5465706E-08  0.9601658E+01 -0.6353045E-01 -0.3262645E-05  0.5311248E-06  0.1196248E+02 -0.1549459E+00  0.6956864E-07  0.5642921E-08  0.1022544E-08  0.2379717E-10
  0.3400000E+01  0.7866475E-08 -0.4319647E-08  0.9601658E+01 -0.1102569E+00 -0.3262645E-05  0.4809762E-06  0.1196248E+02 -0.1994137E+00  0.6956864E-07  0.1807743E-08  0.1022544E-08  0.5363933E-10
  0.3500000E+01  0.7866475E-08 -0.2277505E-08  0.9601658E+01 -0.1692847E+00 -0.3262645E-05  0.3406300E-06  0.1196248E+02 -0.2623690E+00  0.6956864E-07 -0.2588820E-08  0.1022544E-08  0.6473169E-10
  0.3600000E+01  0.7866475E-08  0.3897369E-09  0.9601658E+01 -0.2413445E+00 -0.3262645E-05  0.1390840E-06  0.1196248E+02 -0.3496843E+00  0.6956864E-07 -0.7101023E-08  0.1022544E-08  0.5432883E-10
  0.3700000E+01  0.7866475E-08  0.3268040E-08  0.9601658E+01 -0.3183787E+00 -0.3262645E-05 -0.8223101E-07  0.1196248E+02 -0.4522477E+00  0.6956864E-07 -0.1118666E-07  0.1022544E-08  0.2506405E-10
  0.3800000E+01  0.7866475E-08  0.5869687E-08  0.9601658E+01 -0.3855113E+00 -0.3262645E-05 -0.2779590E-06  0.1196248E+02 -0.5486181E+00  0.6956864E-07 -0.1427869E-07  0.1022544E-08 -0.1594931E-10
  0.3900000E+01  0.7866475E-08  0.7720728E-08  0.9601658E+01 -0.4249974E+00 -0.3262645E-05 -0.4082681E-06  0.1196248E+02 -0.6111119E+00  0.6956864E-07 -0.1587352E-07  0.1022544E-08 -0.5895168E-10
  0.4000000E+01  0.7866475E-08  0.8450117E-08  0.9601658E+01 -0.4210736E+00 -0.3262645E-05 -0.4472448E-06  0.1196248E+02 -0.6136209E+00  0.6956864E-07 -0.1562088E-07  0.1022544E-08 -0.9384258E-10
  0.4100000E+01  0.7866475E-08  0.7863397E-08  0.9601658E+01 -0.3644898E+00 -0.3262645E-05 -0.3884631E-06  0.1196248E+02 -0.5391592E+00  0.6956864E-07 -0.1339871E-07  0.1022544E-08 -0.1124303E-09
  0.4200000E+01  0.7866475E-08  0.5986285E-08  0.9601658E+01 -0.2555792E+00 -0.3262645E-05 -0.2464657E-06  0.1196248E+02 -0.3852473E+00  0.6956864E-07 -0.9357394E-08  0.1022544E-08 -0.1101409E-09
  0.4300000E+01  0.7866475E-08  0.3069154E-08  0.9601658E+01 -0.1051367E+00 -0.3262645E-05 -0.5379970E-07  0.1196248E+02 -0.1658634E+00  0.6956864E-07 -0.3922888E-08  0.1022544E-08 -0.8685686E-10
  0.4400000E+01  0.7866475E-08 -0.4495374E-09  0.9601658E+01  0.6712134E-01 -0.3262645E-05  0.1458505E-06  0.1196248E+02  0.9049158E-01  0.6956864E-07  0.2245886E-08  0.1022544E-08 -0.4676311E-10
  0.4500000E+01  0.7866475E-08 -0.4014756E-08  0.9601658E+01  0.2361469E+00 -0.3262645E-05  0.3070291E-06  0.1196248E+02  0.3461125E+00  0.6956864E-07  0.8340805E-08  0.1022544E-08  0.2698634E-11
  0.4600000E+01  0.7866475E-08 -0.7048782E-08  0.9601658E+01  0.3763894E+00 -0.3262645E-05  0.3923961E-06  0.1196248E+02  0.5615460E+00  0.6956864E-07  0.1351875E-07  0.1022544E-08  0.5248495E-10
  0.4700000E+01  0.7866475E-08 -0.9050686E-08  0.9601658E+01  0.4667665E+00 -0.3262645E-05  0.3810435E-06  0.1196248E+02  0.7034578E+00  0.6956864E-07  0.1702848E-07  0.1022544E-08  0.9382264E-10
  0.4800000E+01  0.7866475E-08 -0.9683247E-08  0.9601658E+01  0.4946909E+00 -0.3262645E-05  0.2733996E-06  0.1196248E+02  0.7511605E+00  0.6956864E-07  0.1832990E-07  0.1022544E-08  0.1198915E-09
  0.4900000E+01  0.7866475E-08 -0.8831891E-08  0.9601658E+01  0.4583045E+00 -0.3262645E-05  0.9160553E-07  0.1196248E+02  0.7004107E+00  0.6956864E-07  0.1718601E-07  0.1022544E-08  0.1269906E-09
  0.5000000E+01  0.7866475E-08 -0.6624789E-08  0.9601658E+01  0.3664697E+00 -0.3262645E-05 -0.1248119E-06  0.1196248E+02  0.5637019E+00  0.6956864E-07  0.1371043E-07  0.1022544E-08  0.1149865E-09