VARIABLES="w (rad/s)"
"A   1   1" "B   1   1"
"A   1   2" "B   1   2"
"A   1   3" "B   1   3"
"A   1   4" "B   1   4"
"A   1   5" "B   1   5"
"A   1   6" "B   1   6"
Zone t="Motion of body    1 in DoF   1",I=    21,F=POINT
  0.3000000E+01  0.2048708E+02 -0.3441152E+01  0.7892959E-07  0.1014996E-07  0.1422723E-02 -0.8012354E-04 -0.4072984E-06 -0.7916242E-08 -0.2639176E+02  0.5430941E+01  0.3293662E-13  0.5218916E-14
  0.3100000E+01  0.1854220E+02 -0.3596664E+01  0.2135282E-06 -0.9832547E-08 -0.2958698E-02 -0.4209727E-03  0.1153638E-06  0.1154840E-06 -0.2326221E+02  0.5488431E+01 -0.2116587E-13  0.2671040E-14
  0.3200000E+01  0.1499121E+02 -0.2746847E+01 -0.1192529E-06  0.1070430E-07 -0.8125305E-02  0.1182704E-01 -0.4656613E-08  0.1955777E-07 -0.1949949E+02  0.4590282E+01  0.2220446E-14  0.1513113E-14
  0.3300000E+01  0.1357809E+02 -0.2510353E+01  0.1397689E-06 -0.1459011E-07 -0.4263358E-03  0.7911175E-03 -0.6795833E-06 -0.3818423E-07 -0.1644810E+02  0.3906154E+01 -0.2033727E-13 -0.7723856E-14
  0.3400000E+01  0.1189136E+02 -0.1967359E+01  0.8827021E-07  0.8330971E-08 -0.2062461E-02  0.5489077E-02 -0.7231446E-07  0.2677552E-08 -0.1361084E+02  0.2954364E+01  0.1028589E-14 -0.1745132E-14
  0.3500000E+01  0.1111440E+02 -0.2124417E+01 -0.1430245E-07  0.2179513E-07 -0.1212324E-02 -0.9232610E-03  0.4257475E-07 -0.7578637E-07 -0.1368605E+02  0.3630665E+01  0.8025326E-14 -0.6591949E-16
  0.3600000E+01  0.9944644E+01 -0.1977387E+01 -0.3298434E-08 -0.2510569E-07 -0.6949240E-03 -0.1191020E-02  0.1831601E-06  0.2607703E-07 -0.1203569E+02  0.3164793E+01 -0.2588979E-13 -0.1811051E-14
  0.3700000E+01  0.9855519E+01 -0.2094657E+01 -0.4584247E-07 -0.2665183E-07 -0.1824095E-02  0.2395973E-02 -0.4067614E-06  0.3218884E-07 -0.1227647E+02  0.3522721E+01  0.3750753E-14 -0.2352285E-14
  0.3800000E+01  0.9523089E+01 -0.2527353E+01  0.2169001E-07  0.3205059E-08 -0.1661213E-02  0.2962530E-02  0.3813521E-06  0.6868504E-08 -0.1219360E+02  0.4310229E+01  0.1761749E-13 -0.8864437E-15
  0.3900000E+01  0.8970290E+01 -0.2457928E+01 -0.1131318E-07 -0.3234891E-07 -0.3148348E-04  0.2030537E-02 -0.2770088E-07  0.2677552E-07 -0.1146610E+02  0.3899933E+01  0.2915047E-13  0.2789435E-14
  0.4000000E+01  0.8100080E+01 -0.1816191E+01 -0.1697044E-06 -0.1172884E-07 -0.1034737E-03 -0.9571090E-03 -0.2132729E-06  0.5285256E-07 -0.1060970E+02  0.3597132E+01 -0.1273981E-13  0.1543904E-14
  0.4100000E+01  0.7788663E+01 -0.1759207E+01 -0.1791660E-07 -0.4848698E-07  0.2738383E-02 -0.4751395E-02  0.1081243E-06 -0.5122274E-08 -0.9580463E+01  0.2981951E+01  0.2274603E-14 -0.7979728E-16
  0.4200000E+01  0.7505510E+01 -0.1837259E+01  0.9551601E-07 -0.3914465E-07 -0.8730662E-04 -0.2971772E-02 -0.2208565E-06 -0.3899913E-07 -0.8763713E+01  0.2764118E+01  0.3852738E-14 -0.2272488E-14
  0.4300000E+01  0.7188181E+01 -0.1723556E+01  0.5554093E-07 -0.1886656E-07 -0.3968838E-03 -0.8771941E-03 -0.1074270E-06 -0.5582115E-07 -0.8340096E+01  0.2787378E+01 -0.7093809E-14  0.1249001E-15
  0.4400000E+01  0.6789178E+01 -0.1307559E+01 -0.5561477E-07 -0.2080924E-08  0.4926866E-03 -0.9624595E-03  0.3555959E-07  0.1746230E-07 -0.8101308E+01  0.2478994E+01 -0.3179275E-14  0.2126771E-14
  0.4500000E+01  0.6280971E+01 -0.1151894E+01 -0.1152512E-07 -0.1005537E-07 -0.4984538E-03 -0.7291548E-03  0.1158979E-06 -0.3562309E-07 -0.7686884E+01  0.2307193E+01  0.6019876E-14 -0.9263423E-15
  0.4600000E+01  0.6316678E+01 -0.1727722E+01 -0.6357289E-07 -0.3514288E-08 -0.1031990E-02  0.2747551E-03 -0.1619691E-06 -0.3492460E-08 -0.7942857E+01  0.2876539E+01  0.1267102E-14  0.3049644E-14
  0.4700000E+01  0.6449216E+01 -0.2142153E+01 -0.3159314E-07 -0.3041350E-08 -0.6468245E-03  0.2002671E-02 -0.8243196E-07  0.1396984E-07 -0.8277848E+01  0.3128681E+01 -0.6909367E-15 -0.7771561E-15
  0.4800000E+01  0.6202403E+01 -0.9926900E+00 -0.2890980E-07  0.7872586E-08 -0.1585707E-02  0.1984769E-02 -0.2949188E-07 -0.3218884E-07 -0.7988697E+01  0.1432314E+01  0.4903485E-14  0.5412337E-15
  0.4900000E+01  0.5950424E+01 -0.1680987E+00 -0.3752612E-07  0.2299203E-08 -0.1457224E-02  0.3497891E-02  0.1497719E-06  0.3958121E-08 -0.7896890E+01  0.6546841E+00 -0.5834335E-15 -0.2498002E-15
  0.5000000E+01  0.5757141E+01 -0.1106389E+01  0.4365575E-08 -0.5515176E-08  0.1352549E-02 -0.2349779E-02  0.3501773E-07  0.2433080E-07 -0.7565647E+01  0.1617107E+01 -0.3480549E-14 -0.1644518E-14
Zone t="Motion of body    1 in DoF   2",I=    21,F=POINT
  0.3000000E+01 -0.1715186E-07 -0.3219611E-09  0.2048748E+02 -0.3435758E+01  0.1658002E-04 -0.8556992E-05  0.2639108E+02 -0.5423513E+01  0.4122655E-06 -0.2142042E-07  0.2019531E-08 -0.5350843E-09
  0.3100000E+01  0.5625489E-07  0.3562491E-08  0.1855334E+02 -0.3603316E+01 -0.6414229E-04  0.4386529E-05  0.2327624E+02 -0.5497555E+01  0.9541550E-06 -0.6752089E-07  0.1796461E-08 -0.5577694E-09
  0.3200000E+01 -0.8945790E-07  0.1717171E-07  0.1499739E+02 -0.2750153E+01 -0.8745119E-05  0.8754432E-07  0.1950704E+02 -0.4595215E+01  0.3864989E-06 -0.3306195E-07  0.1455839E-08 -0.4690168E-09
  0.3300000E+01  0.5669073E-07  0.2585512E-07  0.1358041E+02 -0.2511362E+01  0.6502325E-05 -0.9415671E-06  0.1645114E+02 -0.3907836E+01  0.2325484E-06 -0.8894131E-07  0.1408595E-08 -0.4538090E-09
  0.3400000E+01  0.4478566E-07 -0.7185008E-08  0.1188966E+02 -0.1965049E+01  0.1591795E-04  0.4354166E-05  0.1360838E+02 -0.2951779E+01 -0.2344741E-06 -0.1268927E-07  0.1218651E-08 -0.3869981E-09
  0.3500000E+01  0.1696338E-08  0.2707748E-07  0.1111565E+02 -0.2125231E+01 -0.6450074E-05 -0.2673361E-05  0.1368747E+02 -0.3631642E+01  0.2171312E-06 -0.4656613E-09  0.1139201E-08 -0.4138205E-09
  0.3600000E+01 -0.8129670E-07  0.1511216E-07  0.9944335E+01 -0.1978071E+01 -0.6912483E-06 -0.6144401E-06  0.1203490E+02 -0.3165902E+01 -0.2690487E-06 -0.5436596E-07  0.9946919E-09 -0.3920942E-09
  0.3700000E+01  0.4826516E-07 -0.5340553E-08  0.9857581E+01 -0.2095828E+01  0.2911767E-05 -0.1987442E-05  0.1227909E+02 -0.3524578E+01  0.5738961E-07 -0.4441245E-07  0.1024932E-08 -0.4247468E-09
  0.3800000E+01 -0.8761785E-07 -0.7734343E-08  0.9523170E+01 -0.2527858E+01 -0.2016362E-04  0.4828908E-05  0.1219357E+02 -0.4311079E+01  0.1029357E-06 -0.2700835E-07  0.1024613E-08 -0.5139663E-09
  0.3900000E+01  0.2507407E-08 -0.3728564E-07  0.8973068E+01 -0.2459910E+01 -0.7744783E-05  0.1024920E-05  0.1147004E+02 -0.3903043E+01  0.1700261E-06  0.3539026E-07  0.9447988E-09 -0.5119010E-09
  0.4000000E+01 -0.1396984E-08  0.8687493E-08  0.8099722E+01 -0.1815745E+01 -0.1927838E-04 -0.2503861E-05  0.1060926E+02 -0.3596264E+01 -0.3315508E-06  0.3137393E-07  0.8501241E-09 -0.4341643E-09
  0.4100000E+01  0.5800890E-07 -0.3814785E-07  0.7788953E+01 -0.1759371E+01  0.1034904E-04 -0.4858011E-06  0.9580648E+01 -0.2982297E+01  0.4452176E-07  0.1600711E-07  0.8291796E-09 -0.4544710E-09
  0.4200000E+01 -0.3195878E-07  0.2794695E-07  0.7505589E+01 -0.1837235E+01 -0.1058337E-04  0.2114917E-05  0.8763495E+01 -0.2764017E+01  0.1632032E-06  0.5104812E-07  0.8735356E-09 -0.4104647E-09
  0.4300000E+01  0.3139153E-07  0.1435546E-07  0.7188649E+01 -0.1722478E+01  0.8899112E-05  0.2912479E-05  0.8340405E+01 -0.2787288E+01  0.0000000E+00 -0.9179348E-07  0.8527037E-09 -0.1460568E-08
  0.4400000E+01 -0.1538534E-07  0.1065200E-07  0.6789061E+01 -0.1307600E+01  0.1265413E-04 -0.4102476E-06  0.8101118E+01 -0.2478867E+01  0.1049855E-06 -0.3955211E-07  0.8377446E-09 -0.5647389E-09
  0.4500000E+01 -0.4537610E-07  0.1367880E-08  0.6279909E+01 -0.1151193E+01 -0.5582968E-05  0.9799260E-06  0.7685344E+01 -0.2306269E+01  0.3145801E-07 -0.2788147E-07  0.6930561E-09 -0.3284487E-09
  0.4600000E+01 -0.6048535E-08  0.1776789E-07  0.6316728E+01 -0.1727390E+01  0.6187222E-05 -0.3118534E-05  0.7943092E+01 -0.2876189E+01 -0.3530927E-06 -0.8847564E-08  0.6773027E-09 -0.4416010E-09
  0.4700000E+01  0.1195982E-06  0.1888111E-07  0.6449317E+01 -0.2142695E+01 -0.8460373E-05 -0.3568362E-05  0.8278284E+01 -0.3129310E+01 -0.3091198E-07  0.1990702E-07  0.7223712E-09 -0.5250757E-09
  0.4800000E+01 -0.1941468E-07  0.2561137E-08  0.6201982E+01 -0.9919435E+00  0.4158355E-05 -0.1481851E-05  0.7987899E+01 -0.1430818E+01 -0.3647680E-07 -0.9895302E-08  0.7067996E-09 -0.4040394E-09
  0.4900000E+01  0.1580872E-06 -0.1105946E-08  0.5950123E+01 -0.1676806E+00 -0.9288897E-05  0.6135087E-06  0.7896151E+01 -0.6538663E+00 -0.2736948E-07  0.2444722E-08  0.7043395E-09 -0.3034263E-09
  0.5000000E+01 -0.1902226E-07  0.4074536E-08  0.5757270E+01 -0.1106220E+01  0.8051097E-05  0.7625204E-06  0.7566064E+01 -0.1616841E+01 -0.9536743E-07 -0.1990702E-07  0.6754859E-09 -0.4598353E-09
Zone t="Motion of body    1 in DoF   3",I=    21,F=POINT
  0.3000000E+01 -0.1318753E-02  0.2517643E-02  0.3138402E-05 -0.1011213E-06 -0.1791115E+02  0.2745001E+03  0.2813339E-04 -0.6024912E-04  0.8570353E-03 -0.2106190E-02  0.8733754E-14 -0.1591435E-13
  0.3100000E+01 -0.1839428E-03  0.2012675E-03  0.9538546E-07  0.9596260E-07 -0.1414181E+02  0.2897861E+03  0.7267921E-05  0.1168437E-04 -0.2531852E-03  0.5929470E-03  0.3652992E-13 -0.2858824E-13
  0.3200000E+01  0.4917560E-02 -0.1706684E-01 -0.1708395E-06 -0.4251851E-06 -0.3576392E+01  0.2670611E+03 -0.9173527E-05 -0.2871640E-04 -0.6235391E-02  0.2399075E-01  0.2206568E-13  0.1114733E-13
  0.3300000E+01  0.4793207E-03 -0.3336102E-02  0.9375878E-05 -0.5708425E-06  0.2769069E+01  0.2610231E+03 -0.3991705E-05 -0.1192652E-04 -0.2694853E-03  0.3913879E-02 -0.3963160E-13 -0.5995204E-14
  0.3400000E+01  0.7722286E-03 -0.6752147E-02  0.1147499E-04 -0.1239066E-05  0.7577085E+01  0.2634117E+03 -0.6477622E-05 -0.3525801E-04  0.1744663E-03  0.9288311E-02 -0.4898043E-14 -0.6106227E-15
  0.3500000E+01  0.1100536E-03 -0.1769163E-02  0.9362453E-06  0.1755514E-05  0.1387446E+02  0.2327940E+03 -0.1548018E-04 -0.8797273E-05 -0.6433214E-03  0.5217969E-02 -0.3343357E-13 -0.3536754E-13
  0.3600000E+01  0.2296269E-03  0.6877854E-03 -0.1215117E-05  0.4443107E-05  0.1781780E+02  0.2245509E+03  0.3231069E-04  0.1459941E-04 -0.1192093E-03  0.2251118E-03 -0.1615991E-13 -0.2969847E-14
  0.3700000E+01 -0.6891183E-04 -0.4171379E-02  0.7927694E-05  0.4129251E-05  0.2262083E+02  0.2197975E+03 -0.4518676E-05 -0.1674891E-04 -0.3399720E-03  0.5112141E-02  0.2760554E-14 -0.1537659E-13
  0.3800000E+01 -0.2254095E-03 -0.1458877E-02  0.1302626E-06  0.2932124E-05  0.2665089E+02  0.2096306E+03  0.3670391E-05  0.7799827E-05 -0.7842717E-04  0.2767444E-02  0.1723767E-13 -0.2650657E-14
  0.3900000E+01 -0.2583804E-03 -0.5030939E-03  0.2318396E-05 -0.4154397E-05  0.3206028E+02  0.2193219E+03 -0.5326210E-05 -0.4377775E-04 -0.4300093E-03 -0.1011997E-02  0.5249362E-13 -0.6536438E-14
  0.4000000E+01 -0.1363663E-02 -0.1793158E-02  0.6687478E-05  0.4278118E-05  0.3627979E+02  0.2052891E+03  0.1735985E-05  0.1304969E-04 -0.3197193E-03 -0.1490116E-03  0.3541611E-13 -0.1725009E-13
  0.4100000E+01  0.3724236E-03  0.8937552E-02 -0.1966567E-05  0.2407585E-05  0.3971394E+02  0.1909294E+03 -0.4655704E-05  0.1682807E-04  0.6629200E-04 -0.6794512E-02 -0.6959203E-13 -0.1013079E-14
  0.4200000E+01  0.2553727E-02 -0.1387200E-01  0.6711954E-05 -0.4675967E-05  0.4235013E+02  0.1757539E+03  0.1060466E-04  0.1603086E-04 -0.2528372E-03 -0.4539490E-03  0.1934960E-13  0.1676437E-13
  0.4300000E+01  0.1031992E-01 -0.6374395E-02  0.7391019E-07  0.1013395E-06  0.4420713E+02  0.1593740E+03 -0.1043081E-05 -0.1059147E-04 -0.1258185E-02 -0.4511088E-02  0.3470092E-13 -0.6813994E-14
  0.4400000E+01 -0.2465612E-02 -0.9435965E-02  0.1521654E-05 -0.9309733E-06  0.4745369E+02  0.1493497E+03  0.2485785E-05 -0.7287599E-05 -0.5066395E-03  0.9609610E-03 -0.1662811E-13 -0.1526557E-15
  0.4500000E+01 -0.1057557E-02 -0.7920372E-02  0.5022002E-05 -0.3596651E-06  0.5042040E+02  0.1420685E+03 -0.5960464E-06 -0.5312730E-05  0.4022386E-03  0.1789004E-02 -0.1179304E-13 -0.1840195E-13
  0.4600000E+01  0.5417528E-03  0.1110007E-02 -0.2237199E-07  0.2360903E-06  0.5364360E+02  0.1364414E+03 -0.3598954E-05  0.8299481E-05  0.4643979E-03  0.1483187E-03  0.1713605E-14 -0.7271961E-14
  0.4700000E+01  0.2240612E-03 -0.1140018E-02  0.5738483E-05 -0.6204937E-07  0.5744424E+02  0.1291739E+03  0.4933236E-05 -0.3456604E-05  0.2063589E-03 -0.5072728E-03  0.2260603E-13  0.1329492E-13
  0.4800000E+01 -0.1409290E-02  0.5579926E-04  0.2978825E-05 -0.3435416E-06  0.6148179E+02  0.1137046E+03  0.7317091E-05 -0.8798670E-05  0.8605917E-03 -0.9792298E-04  0.3839521E-14  0.3719247E-14
  0.4900000E+01  0.2960921E-04  0.6321790E-03 -0.1806338E-05  0.6157206E-06  0.6824538E+02  0.9831572E+02 -0.6665989E-05  0.2900371E-05  0.7558356E-03  0.3992990E-03 -0.1073971E-13 -0.3552714E-14
  0.5000000E+01  0.1861066E-03 -0.1306107E-02  0.9671319E-06 -0.1860317E-06  0.7247012E+02  0.9429527E+02 -0.8493662E-05  0.9723008E-06 -0.7214069E-03 -0.1682267E-02  0.2198242E-14 -0.1221245E-14
Zone t="Motion of body    1 in DoF   4",I=    21,F=POINT
  0.3000000E+01  0.7543713E-07 -0.7175913E-07 -0.4881015E+02  0.9870391E+01 -0.1893441E-04 -0.2427027E-05 -0.5934626E+02  0.1555141E+02 -0.1251698E-05 -0.2142042E-07 -0.4173962E-08  0.1525488E-08
  0.3100000E+01  0.5967975E-06 -0.1230692E-06 -0.4201903E+02  0.9924385E+01  0.1381866E-03  0.8327886E-05 -0.4923367E+02  0.1517171E+02  0.5095236E-06 -0.6146729E-07 -0.3413930E-08  0.1537634E-08
  0.3200000E+01 -0.2722663E-06 -0.6239770E-07 -0.3275529E+02  0.7621431E+01  0.4265457E-04  0.1601316E-04 -0.3892078E+02  0.1270764E+02 -0.1303852E-05  0.1993030E-06 -0.2508198E-08  0.1301299E-08
  0.3300000E+01 -0.3318895E-06 -0.4074536E-07 -0.2813579E+02  0.6855023E+01 -0.1334783E-04  0.8282252E-05 -0.3071700E+02  0.1072331E+02  0.2257752E-06 -0.7450581E-08 -0.2284760E-08  0.1252755E-08
  0.3400000E+01 -0.6320667E-07  0.8744246E-07 -0.2357093E+02  0.5555732E+01 -0.1146513E-04  0.5100854E-05 -0.2379414E+02  0.8424469E+01 -0.1358635E-06 -0.1625158E-06 -0.1755067E-08  0.1086176E-08
  0.3500000E+01  0.3940160E-06 -0.3351306E-07 -0.2104463E+02  0.5840805E+01 -0.8795942E-05  0.6822869E-05 -0.2239724E+02  0.9841963E+01  0.5236694E-06 -0.1699664E-06 -0.1531635E-08  0.1138088E-08
  0.3600000E+01 -0.5309832E-07 -0.9008363E-07 -0.1812795E+02  0.5451938E+01 -0.7996957E-05 -0.1762947E-04 -0.1846751E+02  0.8846759E+01  0.7657541E-06 -0.6309710E-07 -0.1253167E-08  0.1089165E-08
  0.3700000E+01 -0.1812303E-07  0.9414362E-07 -0.1689640E+02  0.5682788E+01  0.4004788E-04  0.1618173E-05 -0.1736223E+02  0.9513236E+01  0.5275816E-06  0.1024455E-07 -0.1164217E-08  0.1156008E-08
  0.3800000E+01 -0.5324469E-07 -0.6858318E-07 -0.1536909E+02  0.6080053E+01 -0.4241341E-04 -0.8192845E-05 -0.1582273E+02  0.1039001E+02  0.8901483E-06 -0.9452924E-07 -0.1047052E-08  0.1269396E-08
  0.3900000E+01 -0.1278181E-06  0.3985770E-07 -0.1365996E+02  0.5670953E+01 -0.6059805E-05  0.3062189E-05 -0.1357238E+02  0.9388104E+01 -0.3820811E-06 -0.7590279E-07 -0.8788344E-09  0.1216309E-08
  0.4000000E+01 -0.3643800E-07  0.5580659E-07 -0.1187563E+02  0.4703006E+01 -0.2250075E-04  0.1199031E-04 -0.1151116E+02  0.8768881E+01  0.7636845E-06 -0.1634471E-06 -0.6994029E-09  0.1105774E-08
  0.4100000E+01  0.3225556E-07 -0.3057357E-07 -0.1077637E+02  0.4657421E+01  0.2460509E-04  0.3727153E-05 -0.9512707E+01  0.7859723E+01  0.1104867E-05 -0.8591451E-07 -0.6271066E-09  0.1131620E-08
  0.4200000E+01  0.1007270E-06 -0.1212175E-07 -0.9730221E+01  0.4520592E+01 -0.1326913E-05  0.8079689E-05 -0.7834799E+01  0.7101562E+01  0.1880385E-06  0.1299195E-06 -0.5972874E-09  0.1100430E-08
  0.4300000E+01  0.4060999E-07 -0.3079185E-07 -0.8764301E+01  0.4143521E+01 -0.1946854E-04  0.3159279E-05 -0.6657475E+01  0.6704436E+01 -0.1386154E-07  0.1314329E-06 -0.4166263E-09  0.2182722E-08
  0.4400000E+01 -0.8614734E-07 -0.4986941E-07 -0.7821705E+01  0.3533582E+01 -0.1215122E-04  0.3657304E-05 -0.5688460E+01  0.6149741E+01 -0.1219186E-06  0.6170012E-07 -0.4105411E-09  0.1190686E-08
  0.4500000E+01 -0.1554791E-06 -0.2613524E-07 -0.6929253E+01  0.3190735E+01 -0.1649724E-04 -0.7476658E-05 -0.4717496E+01  0.5722631E+01 -0.4967054E-07  0.3795139E-07 -0.2725236E-09  0.9397816E-09
  0.4600000E+01  0.1796845E-07  0.1319859E-07 -0.6361099E+01  0.3473499E+01  0.2481367E-05  0.2000947E-05 -0.4094876E+01  0.5940248E+01 -0.2559113E-06  0.9033829E-07 -0.2193893E-09  0.9771882E-09
  0.4700000E+01  0.3485029E-07  0.5277980E-07 -0.5840914E+01  0.3429685E+01  0.3360688E-05 -0.4035421E-05 -0.3494829E+01  0.5743643E+01 -0.4803247E-06 -0.1327135E-07 -0.1808589E-09  0.1003158E-08
  0.4800000E+01 -0.9943808E-08 -0.2270099E-07 -0.5254092E+01  0.2548023E+01  0.2856056E-06 -0.5259644E-05 -0.2750719E+01  0.4503226E+01  0.4190952E-07 -0.1734588E-07 -0.1390035E-09  0.9017410E-09
  0.4900000E+01  0.3504339E-07 -0.1947046E-07 -0.4705266E+01  0.2189181E+01  0.2402432E-05  0.1458218E-05 -0.2068379E+01  0.4135760E+01 -0.1429295E-06 -0.5110633E-07 -0.1041772E-09  0.8635282E-09
  0.5000000E+01  0.3406312E-07  0.1551234E-07 -0.4197604E+01  0.2108698E+01 -0.7966160E-05 -0.3000256E-05 -0.1372694E+01  0.3755231E+01  0.2011657E-06 -0.3108289E-07 -0.5207324E-10  0.8385386E-09
Zone t="Motion of body    1 in DoF   5",I=    21,F=POINT
  0.3000000E+01  0.4880893E+02 -0.9882819E+01 -0.7610458E-06  0.6233677E-07  0.1252492E-02  0.2114475E-02  0.1857678E-05 -0.1247972E-06 -0.5934753E+02  0.1556908E+02  0.2997602E-13  0.3108624E-14
  0.3100000E+01  0.4199553E+02 -0.9910216E+01 -0.1682389E-07  0.6721530E-07 -0.3895913E-02  0.7852912E-03  0.8171605E-06  0.1303852E-07 -0.4920490E+02  0.1515201E+02 -0.1862310E-13  0.4340278E-14
  0.3200000E+01  0.3274271E+02 -0.7613799E+01  0.5733455E-07  0.6540904E-07 -0.1514941E-01  0.3060111E-01 -0.8568168E-06  0.2328306E-07 -0.3890399E+02  0.1269503E+02 -0.5426215E-13  0.1114994E-14
  0.3300000E+01  0.2813124E+02 -0.6850790E+01  0.5665545E-06 -0.8627103E-07 -0.1181978E-02 -0.7446706E-03 -0.1806201E-06 -0.6798655E-07 -0.3071147E+02  0.1071891E+02  0.2832751E-13 -0.1336084E-13
  0.3400000E+01  0.2357328E+02 -0.5558597E+01  0.9107787E-07  0.2383604E-07 -0.3949614E-02  0.1002240E-01  0.6574042E-07 -0.5448237E-07 -0.2379775E+02  0.8428438E+01 -0.1456351E-13  0.9440365E-14
  0.3500000E+01  0.2104199E+02 -0.5839155E+01  0.6871830E-07  0.3492460E-07 -0.2290998E-02 -0.4450083E-03  0.5832740E-06  0.3259629E-07 -0.2239429E+02  0.9839088E+01  0.4285461E-13 -0.1321859E-14
  0.3600000E+01  0.1812792E+02 -0.5450647E+01  0.2260398E-06 -0.3931927E-07 -0.8331405E-03 -0.1581103E-02  0.9313226E-06 -0.1629815E-07 -0.1846831E+02  0.8844638E+01  0.5828671E-14 -0.3635980E-14
  0.3700000E+01  0.1689317E+02 -0.5681135E+01 -0.7173701E-07 -0.4714821E-08 -0.2045245E-02  0.3093302E-02 -0.2577498E-06  0.1632143E-06 -0.1735832E+02  0.9508768E+01 -0.5401085E-15 -0.1932482E-14
  0.3800000E+01  0.1536869E+02 -0.6080228E+01 -0.9686980E-07 -0.7080962E-07 -0.2378163E-02  0.1985118E-02 -0.1764611E-06 -0.6752089E-07 -0.1582280E+02  0.1038955E+02 -0.3102781E-13  0.5426215E-14
  0.3900000E+01  0.1365628E+02 -0.5667560E+01 -0.7683411E-07  0.2488378E-07  0.2200787E-04  0.2351373E-02  0.8023702E-07 -0.1955777E-07 -0.1356789E+02  0.9382713E+01  0.7116814E-15  0.6002143E-14
  0.4000000E+01  0.1187557E+02 -0.4703706E+01 -0.1541339E-06 -0.1149601E-07 -0.3805161E-03 -0.3924966E-03  0.2868474E-06  0.1131557E-06 -0.1151163E+02  0.8769490E+01 -0.9714451E-15  0.5960510E-14
  0.4100000E+01  0.1077560E+02 -0.4659074E+01  0.4736116E-07  0.7086783E-07  0.2346620E-02 -0.7989980E-02  0.1235706E-06  0.2840534E-07 -0.9512301E+01  0.7859903E+01 -0.1992986E-13 -0.6453171E-14
  0.4200000E+01  0.9728670E+01 -0.4523961E+01  0.2860491E-07 -0.5804759E-07 -0.5778813E-04 -0.2914064E-02 -0.4257475E-07 -0.8498318E-08 -0.7834807E+01  0.7102649E+01  0.4229421E-15  0.2914335E-15
  0.4300000E+01  0.8772820E+01 -0.4136401E+01  0.3367922E-07 -0.5462789E-07 -0.1248648E-02  0.3017418E-02  0.7034734E-06  0.6251503E-07 -0.6658571E+01  0.6705311E+01  0.1241901E-13  0.1401657E-14
  0.4400000E+01  0.7821778E+01 -0.3533327E+01  0.7133084E-07 -0.2319575E-07  0.7480925E-03 -0.4749745E-03  0.9482557E-07  0.9534415E-07 -0.5688571E+01  0.6149562E+01  0.7090288E-14  0.2942091E-14
  0.4500000E+01  0.6930266E+01 -0.3193273E+01 -0.4232344E-07  0.6752089E-08 -0.2319548E-03  0.2136473E-02  0.2864334E-06  0.6612390E-07 -0.4718378E+01  0.5724630E+01  0.2380812E-14 -0.2137179E-14
  0.4600000E+01  0.6360734E+01 -0.3472775E+01  0.2910383E-08  0.1338776E-08 -0.2123999E-03 -0.5818903E-05 -0.1814054E-06 -0.7485505E-07 -0.4094708E+01  0.5940207E+01 -0.2823828E-14 -0.4489464E-14
  0.4700000E+01  0.5841074E+01 -0.3428828E+01 -0.4339567E-07 -0.3528839E-07 -0.4208342E-03 -0.8052066E-03  0.5326373E-06 -0.1012813E-07 -0.3494778E+01  0.5743331E+01  0.1065342E-13  0.3448630E-14
  0.4800000E+01  0.5253894E+01 -0.2546832E+01 -0.3589472E-07  0.2418528E-07 -0.5489588E-03  0.1215737E-02  0.1381462E-06  0.1123990E-06 -0.2750798E+01  0.4503707E+01 -0.1838807E-14  0.2678413E-14
  0.4900000E+01  0.4705482E+01 -0.2189163E+01 -0.8315380E-08 -0.7479684E-08 -0.3876978E-03  0.2128202E-02  0.4105422E-07 -0.5576294E-07 -0.2068451E+01  0.4136289E+01  0.1801280E-14  0.2733924E-14
  0.5000000E+01  0.4197610E+01 -0.2110806E+01 -0.1802109E-07 -0.2648449E-08  0.8888244E-04  0.2238452E-03 -0.2503395E-06  0.2188608E-07 -0.1372630E+01  0.3755177E+01 -0.4751754E-14 -0.1387779E-14
Zone t="Motion of body    1 in DoF   6",I=    21,F=POINT
  0.3000000E+01  0.5105870E-15  0.3901773E-16  0.3764243E-08 -0.6417838E-09 -0.2560914E-13 -0.2276825E-16  0.4871721E-08 -0.1000648E-08 -0.2605323E-13 -0.6613633E-16  0.1001885E-12 -0.5534430E-17
  0.3100000E+01 -0.1740879E-14  0.1787578E-16  0.3405405E-08 -0.6748951E-09  0.3079974E-14 -0.5733261E-15  0.4289451E-08 -0.1024494E-08  0.3581365E-13 -0.5486063E-16  0.1001083E-12 -0.5201581E-17
  0.3200000E+01 -0.2381179E-14 -0.5332919E-16  0.2727476E-08 -0.5710419E-09 -0.1249001E-13  0.7246807E-15  0.3595509E-08 -0.8934873E-09  0.4232725E-14  0.7578573E-15  0.9994413E-13 -0.5984875E-17
  0.3300000E+01 -0.8934877E-14 -0.1006275E-16  0.2476051E-08 -0.4639652E-09  0.3902602E-14  0.1177877E-14  0.3019421E-08 -0.7119078E-09 -0.4969089E-13  0.1288032E-15  0.9995694E-13 -0.1318446E-16
  0.3400000E+01  0.3448018E-14 -0.1070650E-15  0.2151317E-08 -0.3469601E-09 -0.5316009E-13 -0.2463307E-14  0.2479438E-08 -0.5239507E-09 -0.1204919E-13  0.2428613E-15  0.9962772E-13 -0.3914882E-16
  0.3500000E+01 -0.5506508E-15  0.3773024E-16  0.2019456E-08 -0.3488502E-09 -0.7828659E-13 -0.1689621E-14  0.2516463E-08 -0.6297600E-09 -0.7213278E-13 -0.2874437E-14  0.9915827E-13 -0.4563808E-16
  0.3600000E+01 -0.2400665E-14  0.3614730E-15  0.1786289E-08 -0.3622755E-09  0.1801029E-13 -0.1419004E-14  0.2188460E-08 -0.5538467E-09 -0.1719612E-12  0.3585673E-14  0.9865690E-13 -0.7464179E-16
  0.3700000E+01 -0.4442767E-14  0.4206704E-16  0.1778838E-08 -0.3645273E-09 -0.1548311E-13  0.2005340E-14  0.2240730E-08 -0.6081893E-09 -0.2448492E-13 -0.1383962E-13  0.9863637E-13 -0.1873188E-15
  0.3800000E+01 -0.3705004E-14  0.7968886E-16  0.1732109E-08 -0.4101142E-09  0.3798131E-13 -0.1006140E-14  0.2240941E-08 -0.7274561E-09 -0.2960205E-12  0.4062722E-14  0.9830965E-13 -0.1789718E-15
  0.3900000E+01  0.8454775E-14 -0.1332484E-14  0.1626989E-08 -0.4122460E-09  0.1696648E-13 -0.3066991E-14  0.2103211E-08 -0.6818603E-09  0.1235479E-13 -0.7362166E-14  0.9805667E-13 -0.2516039E-15
  0.4000000E+01 -0.5812191E-14 -0.2356622E-14  0.1466519E-08 -0.2638763E-09  0.3086420E-13  0.8687495E-14  0.1937227E-08 -0.6082341E-09  0.2413625E-12  0.2614575E-13  0.9731480E-13 -0.6679921E-15
  0.4100000E+01 -0.3962447E-13  0.3752207E-14  0.1395915E-08 -0.3268569E-09 -0.5025790E-13 -0.8992806E-14  0.1736262E-08 -0.5215008E-09 -0.1301940E-12  0.3108624E-13  0.9590921E-13 -0.1519096E-14
  0.4200000E+01 -0.3539167E-13  0.1026609E-13  0.1368324E-08 -0.3637403E-09 -0.1425315E-12  0.1978417E-12  0.1632017E-08 -0.5131356E-09 -0.2793533E-12 -0.4374279E-12  0.8601165E-13 -0.7526675E-14
  0.4300000E+01  0.1000895E-14  0.1591949E-11  0.1421895E-08 -0.1349921E-08  0.4353107E-13  0.6636469E-11  0.1489241E-08 -0.1993664E-08 -0.6338599E-13 -0.4227729E-11  0.9922860E-13 -0.4174328E-12
  0.4400000E+01 -0.9861430E-13 -0.5888345E-13  0.1230741E-08 -0.4665700E-09  0.4521635E-13 -0.9414691E-13  0.1531918E-08 -0.5959036E-09 -0.7145799E-13  0.5995204E-12  0.1198484E-12 -0.3180272E-13
  0.4500000E+01  0.5603234E-13  0.2029626E-14  0.1111781E-08 -0.3004765E-09 -0.1158579E-12  0.2886580E-14  0.1380724E-08 -0.4074383E-09 -0.1228647E-12  0.2116085E-12  0.1108141E-12 -0.7170962E-14
  0.4600000E+01 -0.5392426E-13  0.8805314E-15  0.1085728E-08 -0.3047335E-09  0.5638002E-13  0.6356027E-14  0.1393932E-08 -0.4828342E-09  0.5734543E-13  0.4996004E-14  0.1076530E-12 -0.1251227E-14
  0.4700000E+01 -0.4657917E-14 -0.1612642E-14  0.1135720E-08 -0.3297995E-09  0.1719665E-13  0.5426215E-14  0.1460274E-08 -0.5282221E-09 -0.4145148E-12  0.2378653E-13  0.1065479E-12 -0.4848060E-15
  0.4800000E+01 -0.1276756E-13 -0.6665675E-14  0.1079888E-08 -0.1816074E-09 -0.2858824E-13  0.1532108E-13  0.1403286E-08 -0.2353266E-09 -0.4676814E-13 -0.1694200E-12  0.1055300E-12 -0.3055021E-14
  0.4900000E+01  0.2635363E-14  0.9202708E-15  0.1057689E-08 -0.5082916E-10  0.2175131E-14  0.4773959E-13  0.1429924E-08 -0.1224705E-09 -0.3706785E-13  0.1904032E-12  0.1057071E-12 -0.5035139E-14
  0.5000000E+01 -0.6726564E-14 -0.8220421E-15  0.1012117E-08 -0.2067506E-09  0.1065814E-14  0.3885781E-14  0.1331314E-08 -0.2743238E-09  0.2207123E-13 -0.3804596E-13  0.1052827E-12 -0.1119862E-14
