VARIABLES="w (rad/s)"
"abs(F   1   1)" "angle(F   1   1)"
"abs(F   1   2)" "angle(F   1   2)"
"abs(F   1   3)" "angle(F   1   3)"
"abs(F   1   4)" "angle(F   1   4)"
"abs(F   1   5)" "angle(F   1   5)"
"abs(F   1   6)" "angle(F   1   6)"
Zone t="FKforce - beta =   0.000",I=   300,F=POINT
  0.2000000E-01  0.2411851E-02 -0.1570697E+01  0.3883243E-04 -0.3141593E+01  0.4929211E+03  0.1070165E-12  0.4756264E-05  0.9336933E-07  0.2115798E-03  0.1568824E+01  0.5400125E-12 -0.3141592E+01
  0.4000000E-01  0.9647332E-02 -0.1570376E+01  0.8311868E-04 -0.3141592E+01  0.4929138E+03 -0.1476112E-12  0.1979060E-05 -0.6965188E-06  0.8463132E-03  0.1572592E+01  0.1421085E-12 -0.3051758E-04
  0.6000000E-01  0.2170624E-01 -0.1570709E+01  0.5149841E-04  0.3141592E+01  0.4929012E+03  0.1771379E-12  0.1701340E-04 -0.3141593E+01  0.1904186E-02  0.1572095E+01  0.3694822E-12 -0.3141532E+01
  0.8000000E-01  0.3858823E-01 -0.1570790E+01  0.4850328E-04  0.3141592E+01  0.4928847E+03 -0.1535247E-11  0.6110407E-05 -0.1581463E-06  0.3385159E-02  0.1570655E+01  0.1989520E-12 -0.1220703E-03
  0.9999999E-01  0.6029275E-01 -0.1570516E+01  0.9223819E-05 -0.5028745E-05  0.4928633E+03 -0.1712465E-11  0.9248033E-06  0.3141544E+01  0.5289220E-02  0.1570396E+01  0.3410605E-12 -0.2848307E-03
  0.1200000E+00  0.8681922E-01 -0.1571000E+01  0.9535998E-04  0.7248491E-06  0.4928362E+03  0.2775527E-11  0.6936491E-05 -0.3141591E+01  0.7616316E-02  0.1570734E+01  0.1989520E-12 -0.3141453E+01
  0.1400000E+00  0.1181669E+00 -0.1570794E+01  0.1912788E-03  0.6751835E-06  0.4928055E+03 -0.5905744E-12  0.8313917E-05  0.2898948E-05  0.1036635E-01  0.1570822E+01  0.5400125E-12 -0.7709704E-04
  0.1600000E+00  0.1543347E+00 -0.1570804E+01  0.1414046E-03  0.3141580E+01  0.4927693E+03  0.7323660E-11  0.5635433E-05  0.1496879E-04  0.1353930E-01  0.1570827E+01  0.1421086E-12  0.4882812E-03
  0.1800000E+00  0.1953217E+00 -0.1570826E+01  0.1884997E-04 -0.5982893E-04  0.4927279E+03  0.4725339E-12  0.4050322E-05 -0.3141580E+01  0.1713509E-01  0.1570657E+01  0.7673862E-12 -0.2531829E-03
  0.2000000E+00  0.2411267E+00 -0.1570858E+01  0.8418411E-04 -0.1028506E-04  0.4926821E+03 -0.8506401E-11  0.6593764E-06  0.1379326E-04  0.2115359E-01  0.1570802E+01  0.1421087E-12 -0.1660155E-02
  0.2200000E+00  0.2917485E+00 -0.1570759E+01  0.2800673E-04  0.3143497E-04  0.4926314E+03  0.1252460E-10  0.3584009E-04 -0.2791411E-05  0.2559471E-01  0.1570848E+01  0.1421091E-12  0.2734368E-02
  0.2400000E+00  0.3471851E+00 -0.1570760E+01  0.1283213E-03 -0.8845366E-05  0.4925759E+03 -0.1465307E-10  0.1242664E-04  0.3141587E+01  0.3045839E-01  0.1570788E+01  0.3410606E-12  0.3140697E+01
  0.2600000E+00  0.4074354E+00 -0.1570845E+01  0.8621812E-04 -0.3141572E+01  0.4925155E+03 -0.1276392E-10  0.1805276E-04  0.1783446E-04  0.3574442E-01  0.1570799E+01  0.1136870E-12 -0.1464843E-02
  0.2800000E+00  0.4724973E+00 -0.1570790E+01  0.5625933E-04  0.3141561E+01  0.4924510E+03  0.3073198E-10  0.1070462E-04  0.3135128E-04  0.4145275E-01  0.1570799E+01  0.5968561E-12 -0.8370533E-03
  0.3000000E+00  0.5423692E+00 -0.1570825E+01  0.9914488E-04  0.1445726E-04  0.4923812E+03  0.4255800E-11  0.1013838E-04  0.1103410E-04  0.4758318E-01  0.1570797E+01  0.8526514E-13 -0.3255208E-03
  0.3200000E+00  0.6170489E+00 -0.1570792E+01  0.2270192E-04  0.6153594E-04  0.4923062E+03  0.9931713E-11  0.1958292E-04  0.2368606E-05  0.5413566E-01  0.1570753E+01  0.5684475E-13 -0.3134757E+01
  0.3400000E+00  0.6965347E+00 -0.1570794E+01  0.1999065E-03 -0.1586900E-04  0.4922269E+03 -0.5628877E-10  0.1392327E-05  0.2508361E-03  0.6110981E-01  0.1570794E+01  0.2842171E-12  0.3906250E-03
  0.3600000E+00  0.7808228E+00 -0.1570778E+01  0.6072968E-04 -0.3115032E-05  0.4921420E+03 -0.5487919E-10  0.1638010E-04 -0.3141579E+01  0.6850576E-01  0.1570794E+01  0.1705329E-12 -0.3136059E+01
  0.3800000E+00  0.8699116E+00 -0.1570817E+01  0.3445148E-04 -0.3141471E+01  0.4920530E+03 -0.2839092E-11  0.3222376E-06  0.3141491E+01  0.7632302E-01  0.1570802E+01  0.3126398E-12  0.3139107E+01
  0.4000000E+00  0.9637996E+00 -0.1570781E+01  0.5873293E-04  0.1833455E-04  0.4919596E+03 -0.3786175E-10  0.4997477E-05 -0.3141565E+01  0.8456160E-01  0.1570790E+01  0.5684349E-12 -0.3140030E+01
  0.4200000E+00  0.1062481E+01 -0.1570806E+01  0.1556426E-04  0.4768280E-03  0.4918609E+03  0.7573870E-11  0.2873503E-04  0.3798130E-06  0.9322117E-01  0.1570791E+01  0.5687853E-13 -0.3106451E+01
  0.4400000E+00  0.1165957E+01 -0.1570801E+01  0.1465827E-03 -0.3141552E+01  0.4917571E+03  0.1060566E-09  0.1944415E-04  0.3141581E+01  0.1023016E+00  0.1570780E+01  0.5685036E-13  0.3125969E+01
  0.4600000E+00  0.1274222E+01 -0.1570799E+01  0.2926588E-04 -0.3141149E+01  0.4916487E+03  0.1231285E-10  0.1004059E-04 -0.4818952E-04  0.1118026E+00  0.1570800E+01  0.5685903E-13  0.2343321E-01
  0.4800000E+00  0.1387272E+01 -0.1570786E+01  0.4585832E-04  0.7171507E-04  0.4915358E+03 -0.4547328E-10  0.3918912E-04 -0.4827230E-05  0.1217241E+00  0.1570816E+01  0.5684515E-13 -0.3133780E+01
  0.5000000E+00  0.1505106E+01 -0.1570805E+01  0.7444620E-04 -0.3141545E+01  0.4914178E+03 -0.7959734E-10  0.3753230E-06 -0.4071030E-03  0.1320656E+00  0.1570793E+01  0.1421087E-12 -0.3140030E+01
  0.5200000E+00  0.1627720E+01 -0.1570798E+01  0.1382828E-04 -0.2209894E-03  0.4912949E+03 -0.7203466E-10  0.3416557E-04  0.5643485E-05  0.1428268E+00  0.1570795E+01  0.7958104E-12  0.2511155E-02
  0.5400000E+00  0.1755109E+01 -0.1570796E+01  0.5753338E-04  0.1143243E-03  0.4911675E+03  0.5688422E-11  0.3399327E-05 -0.3141583E+01  0.1540079E+00  0.1570798E+01  0.1705303E-12  0.3140942E+01
  0.5600000E+00  0.1887271E+01 -0.1570802E+01  0.1318780E-05 -0.6377915E-02  0.4910349E+03 -0.5310627E-10  0.1804624E-04 -0.3141576E+01  0.1656081E+00  0.1570792E+01  0.1705303E-12 -0.6510416E-03
  0.5800000E+00  0.2024201E+01 -0.1570796E+01  0.9653717E-04 -0.2773597E-04  0.4908984E+03 -0.7588720E-11  0.1533143E-04  0.3141525E+01  0.1776273E+00  0.1570798E+01  0.1705494E-12 -0.3126620E+01
  0.6000000E+00  0.2165894E+01 -0.1570791E+01  0.8776039E-04  0.3141468E+01  0.4907560E+03 -0.2467049E-10  0.2872292E-04 -0.3141542E+01  0.1900653E+00  0.1570779E+01  0.1989878E-12 -0.3122622E+01
  0.6199999E+00  0.2312347E+01 -0.1570796E+01  0.1600386E-04 -0.3140425E+01  0.4906094E+03  0.1328808E-09  0.1247972E-04 -0.3141529E+01  0.2029217E+00  0.1570814E+01  0.5689587E-13  0.4294233E-01
  0.6400000E+00  0.2463559E+01 -0.1570795E+01  0.7753819E-04  0.9759056E-04  0.4904583E+03  0.9684299E-10  0.2570504E-06 -0.3135139E+01  0.2161963E+00  0.1570803E+01  0.3996803E-14  0.1570796E+01
  0.6600000E+00  0.2619516E+01 -0.1570801E+01  0.1085401E-03 -0.3141553E+01  0.4903022E+03  0.1709538E-10  0.2006628E-04  0.6998108E-04  0.2298887E+00  0.1570796E+01  0.1422646E-12 -0.4684071E-01
  0.6799999E+00  0.2780224E+01 -0.1570791E+01  0.9318441E-04  0.9369753E-04  0.4901412E+03  0.3230188E-10  0.1904089E-04  0.3141536E+01  0.2439981E+00  0.1570797E+01  0.4831764E-12  0.3136078E+01
  0.7000000E+00  0.2945674E+01 -0.1570801E+01  0.1210347E-03  0.4039704E-04  0.4899756E+03 -0.3611431E-10  0.5358830E-05 -0.3141574E+01  0.2585247E+00  0.1570791E+01  0.5684342E-13  0.0000000E+00
  0.7200000E+00  0.3115860E+01 -0.1570803E+01  0.1226366E-04  0.8543439E-04  0.4898048E+03  0.1901416E-10  0.1078285E-04  0.8164730E-04  0.2734680E+00  0.1570800E+01  0.2273754E-12 -0.3906230E-02
  0.7399999E+00  0.3290780E+01 -0.1570797E+01  0.4145503E-04  0.3141375E+01  0.4896295E+03 -0.7608387E-11  0.1247134E-04 -0.1283511E-04  0.2888277E+00  0.1570799E+01  0.6821581E-12  0.1041629E-01
  0.7600000E+00  0.3470427E+01 -0.1570795E+01  0.1152158E-03 -0.1970302E-04  0.4894497E+03 -0.2663913E-10  0.1800433E-04  0.1002224E-03  0.3046028E+00  0.1570801E+01  0.1705447E-12 -0.1302010E-01
  0.7800000E+00  0.3654792E+01 -0.1570797E+01  0.1102462E-03  0.8658849E-04  0.4892647E+03 -0.3807029E-11  0.1097750E-04 -0.1053862E-03  0.3207945E+00  0.1570797E+01  0.6821211E-12 -0.3141267E+01
  0.8000000E+00  0.3843873E+01 -0.1570804E+01  0.9752818E-05  0.3140280E+01  0.4890756E+03  0.1523401E-10  0.1030043E-04 -0.3141562E+01  0.3374005E+00  0.1570800E+01  0.1422258E-12  0.4060267E-01
  0.8200000E+00  0.4037667E+01 -0.1570799E+01  0.3554673E-04 -0.3140900E+01  0.4888809E+03 -0.3810018E-11  0.8412637E-05  0.3104935E-03  0.3544215E+00  0.1570788E+01  0.5705293E-13 -0.8572687E-01
  0.8400000E+00  0.4236167E+01 -0.1570793E+01  0.6521494E-04 -0.4355649E-03  0.4886824E+03 -0.1257817E-09  0.8940697E-05  0.3141290E+01  0.3718568E+00  0.1570797E+01  0.3410606E-12 -0.6510416E-03
  0.8600000E+00  0.4439363E+01 -0.1570793E+01  0.1693518E-04 -0.1220166E-02  0.4884788E+03 -0.3279313E-09  0.3026891E-04 -0.3533545E-04  0.3897056E+00  0.1570797E+01  0.1776357E-14 -0.1570796E+01
  0.8800001E+00  0.4647254E+01 -0.1570795E+01  0.1365766E-03  0.3141588E+01  0.4882704E+03 -0.6866607E-10  0.5857088E-05  0.3141559E+01  0.4079677E+00  0.1570792E+01  0.1989837E-12  0.1785525E-01
  0.9000000E+00  0.4859826E+01 -0.1570795E+01  0.8519739E-04  0.3141550E+01  0.4880573E+03 -0.1755566E-09  0.1902971E-04  0.4741105E-04  0.4266424E+00  0.1570788E+01  0.1138567E-12 -0.5463308E-01
  0.9200000E+00  0.5077087E+01 -0.1570796E+01  0.4342944E-04  0.3141266E+01  0.4878394E+03 -0.3054522E-09  0.2435781E-04 -0.3405311E-04  0.4457305E+00  0.1570796E+01  0.3980588E-12  0.2789455E-01
  0.9399999E+00  0.5299020E+01 -0.1570799E+01  0.5749613E-04  0.3141334E+01  0.4876169E+03 -0.2673926E-10  0.1803786E-04  0.3141404E+01  0.4652301E+00  0.1570798E+01  0.1421529E-12 -0.3116598E+01
  0.9600000E+00  0.5525621E+01 -0.1570797E+01  0.2925098E-04  0.4576859E-03  0.4873893E+03 -0.2675175E-10  0.1087412E-04  0.3141321E+01  0.4851414E+00  0.1570794E+01  0.2900212E-13 -0.2941194E+01
  0.9800000E+00  0.5756881E+01 -0.1570800E+01  0.8319319E-04 -0.3708244E-03  0.4871577E+03 -0.4664665E-09  0.3850088E-05  0.3141385E+01  0.5054640E+00  0.1570792E+01  0.1776357E-14  0.1570796E+01
  0.9999999E+00  0.5992788E+01 -0.1570796E+01  0.9131432E-04  0.1988822E-03  0.4869210E+03  0.7650707E-11  0.1008623E-05 -0.3140987E+01  0.5261955E+00  0.1570793E+01  0.4263370E-12 -0.7291537E-02
  0.1020000E+01  0.6233353E+01 -0.1570796E+01  0.2974272E-04  0.4227204E-03  0.4866794E+03 -0.1416084E-09  0.7724389E-05 -0.3141481E+01  0.5473375E+00  0.1570800E+01  0.8532178E-13  0.3644219E-01
  0.1040000E+01  0.6478551E+01 -0.1570796E+01  0.2577980E-05 -0.7812341E-02  0.4864330E+03  0.2297515E-09  0.6935559E-05  0.6294481E-04  0.5688897E+00  0.1570798E+01  0.7105450E-12 -0.3139093E+01
  0.1060000E+01  0.6728386E+01 -0.1570796E+01  0.5970151E-04  0.2846936E-03  0.4861827E+03 -0.2605191E-09  0.2308283E-04  0.3141565E+01  0.5908505E+00  0.1570798E+01  0.5970358E-12  0.3117044E+01
  0.1080000E+01  0.6982844E+01 -0.1570794E+01  0.4699826E-04  0.3141402E+01  0.4859271E+03 -0.1839925E-09  0.9435229E-05 -0.1850755E-04  0.6132196E+00  0.1570794E+01  0.7673863E-12  0.5787036E-03
  0.1100000E+01  0.7241921E+01 -0.1570796E+01  0.1193587E-04 -0.2496874E-02  0.4856668E+03 -0.2454549E-09  0.7471070E-05 -0.2746354E-03  0.6359959E+00  0.1570797E+01  0.4831723E-12 -0.3137916E+01
  0.1120000E+01  0.7505609E+01 -0.1570797E+01  0.4834683E-04 -0.7296000E-03  0.4854018E+03  0.7674653E-11  0.2081599E-04 -0.3984721E-04  0.6591803E+00  0.1570793E+01  0.3129616E-12 -0.4542328E-01
  0.1140000E+01  0.7773897E+01 -0.1570794E+01  0.7092960E-05  0.1411501E-02  0.4851326E+03  0.1535782E-09  0.1424926E-05 -0.1705472E-02  0.6827707E+00  0.1570799E+01  0.1137571E-12  0.3106451E+01
  0.1160000E+01  0.8046786E+01 -0.1570796E+01  0.4518780E-04  0.1074299E-02  0.4848585E+03 -0.4609951E-10  0.1328625E-04  0.2541007E-03  0.7067669E+00  0.1570796E+01  0.2558509E-12  0.2083032E-01
  0.1180000E+01  0.8324244E+01 -0.1570795E+01  0.3993511E-04 -0.1195196E-03  0.4845804E+03 -0.7687662E-10  0.4506670E-05 -0.1323879E-03  0.7311677E+00  0.1570796E+01  0.2842171E-13  0.3141593E+01
  0.1200000E+01  0.8606300E+01 -0.1570796E+01  0.1044050E-03 -0.3141546E+01  0.4842968E+03  0.2307649E-10  0.3526921E-05  0.1250164E-02  0.7559736E+00  0.1570796E+01  0.9095425E-12  0.1025355E-01
  0.1220000E+01  0.8892912E+01 -0.1570797E+01  0.7580966E-04  0.3141579E+01  0.4840084E+03  0.5387724E-10  0.6756746E-05 -0.3141162E+01  0.7811838E+00  0.1570801E+01  0.8587473E-13 -0.3022369E+01
  0.1240000E+01  0.9184091E+01 -0.1570797E+01  0.1388790E-04  0.1550763E-02  0.4837159E+03  0.8471541E-09  0.2282951E-04 -0.3141143E+01  0.8067976E+00  0.1570795E+01  0.5767691E-13  0.2971381E+01
  0.1260000E+01  0.9479815E+01 -0.1570796E+01  0.7079542E-04 -0.3141109E+01  0.4834183E+03  0.4700747E-09  0.1219195E-04 -0.3141053E+01  0.8328132E+00  0.1570795E+01  0.1706002E-12 -0.2863800E-01
  0.1280000E+01  0.9780092E+01 -0.1570796E+01  0.1016259E-04 -0.2520161E-03  0.4831169E+03  0.1156643E-09  0.2533384E-04  0.3141573E+01  0.8592328E+00  0.1570797E+01  0.6538737E-12  0.3118499E+01
  0.1300000E+01  0.1008490E+02 -0.1570796E+01  0.3726036E-04  0.6186262E-03  0.4828103E+03 -0.8487432E-10  0.3054743E-05 -0.1705410E-02  0.8860523E+00  0.1570797E+01  0.3130473E-12 -0.5109186E-01
  0.1320000E+01  0.1039423E+02 -0.1570795E+01  0.6310782E-05  0.6677882E-02  0.4824992E+03  0.3165537E-09  0.7627544E-05  0.1747556E-02  0.9132733E+00  0.1570797E+01  0.4440892E-14  0.1570796E+01
  0.1340000E+01  0.1070808E+02 -0.1570796E+01  0.7075819E-04 -0.3140803E+01  0.4821829E+03 -0.3090354E-10  0.2107676E-04  0.3314038E-04  0.9408932E+00  0.1570794E+01  0.2558093E-12 -0.1041629E-01
  0.1360000E+01  0.1102645E+02 -0.1570797E+01  0.9474903E-04  0.3141470E+01  0.4818625E+03 -0.3865511E-10  0.1863949E-04  0.3141588E+01  0.9689122E+00  0.1570799E+01  0.2274847E-12 -0.3110353E+01
  0.1380000E+01  0.1134929E+02 -0.1570796E+01  0.4910678E-04 -0.1280155E-03  0.4815378E+03 -0.9592933E-09  0.1284853E-04 -0.2627573E-03  0.9973298E+00  0.1570797E+01  0.7105450E-12 -0.3139093E+01
  0.1400000E+01  0.1167663E+02 -0.1570796E+01  0.1301170E-03  0.3140775E+01  0.4812087E+03 -0.8515680E-10  0.1619756E-04  0.3141048E+01  0.1026147E+01  0.1570798E+01  0.3128520E-12  0.3691504E-01
  0.1420000E+01  0.1200846E+02 -0.1570798E+01  0.3270805E-04  0.3559226E-04  0.4808748E+03  0.5810177E-09  0.1171604E-04 -0.6284777E-03  0.1055362E+01  0.1570797E+01  0.4547552E-12  0.5859308E-02
  0.1440000E+01  0.1234474E+02 -0.1570797E+01  0.4697593E-04  0.3140710E+01  0.4805362E+03  0.9302835E-09  0.7820316E-05 -0.3141544E+01  0.1084970E+01  0.1570798E+01  0.5115915E-12 -0.1736109E-02
  0.1460000E+01  0.1268549E+02 -0.1570796E+01  0.2879650E-04 -0.2587322E-03  0.4801925E+03  0.3723797E-09  0.9218231E-05  0.3141356E+01  0.1114977E+01  0.1570796E+01  0.2277134E-12 -0.5463308E-01
  0.1480000E+01  0.1303068E+02 -0.1570796E+01  0.5224353E-04 -0.3140149E+01  0.4798453E+03  0.4192303E-09  0.1714192E-04 -0.3141382E+01  0.1145376E+01  0.1570796E+01  0.1137735E-12  0.3904265E-01
  0.1500000E+01  0.1338031E+02 -0.1570795E+01  0.1076981E-03 -0.3141484E+01  0.4794927E+03  0.4661540E-10  0.2096420E-05  0.3553961E-02  0.1176170E+01  0.1570796E+01  0.9137884E-13  0.2773721E+01
  0.1520000E+01  0.1373437E+02 -0.1570796E+01  0.2180047E-04 -0.3139072E+01  0.4791361E+03 -0.4665009E-10  0.1170952E-04  0.6884792E-03  0.1207358E+01  0.1570798E+01  0.3989177E-12  0.3070285E+01
  0.1540000E+01  0.1409285E+02 -0.1570798E+01  0.4161150E-04  0.4364369E-03  0.4787747E+03  0.6847177E-09  0.1396798E-04 -0.3141501E+01  0.1238938E+01  0.1570796E+01  0.2851537E-12 -0.8107191E-01
  0.1560000E+01  0.1445573E+02 -0.1570797E+01  0.1298413E-03  0.3140938E+01  0.4784088E+03  0.2803260E-09  0.1343619E-04  0.3141300E+01  0.1270908E+01  0.1570797E+01  0.1720867E-12 -0.3006995E+01
  0.1580000E+01  0.1482300E+02 -0.1570797E+01  0.4404783E-04 -0.1162889E-03  0.4780382E+03 -0.3117149E-10  0.1856406E-04 -0.3141024E+01  0.1303270E+01  0.1570796E+01  0.2561421E-12  0.3089556E+01
  0.1600000E+01  0.1519467E+02 -0.1570797E+01  0.8932501E-04 -0.3141407E+01  0.4776636E+03 -0.7798982E-10  0.1488533E-04  0.3141043E+01  0.1336021E+01  0.1570798E+01  0.1997434E-12  0.8904959E-01
  0.1620000E+01  0.1557069E+02 -0.1570797E+01  0.1217446E-04 -0.3135664E+01  0.4772842E+03 -0.5307524E-09  0.2921565E-05 -0.3139560E+01  0.1369164E+01  0.1570796E+01  0.8810748E-12 -0.3139576E+01
  0.1640000E+01  0.1595108E+02 -0.1570798E+01  0.1605749E-03 -0.3141530E+01  0.4769006E+03 -0.5155564E-09  0.7413348E-06  0.3139237E+01  0.1402693E+01  0.1570796E+01  0.2854634E-13  0.9347678E-01
  0.1660000E+01  0.1633584E+02 -0.1570796E+01  0.2123863E-03  0.4648144E-03  0.4765126E+03 -0.7817821E-10  0.2098272E-05  0.1359298E-02  0.1436609E+01  0.1570795E+01  0.4263590E-12  0.3129093E+01
  0.1680000E+01  0.1672491E+02 -0.1570797E+01  0.7695710E-04 -0.3140476E+01  0.4761196E+03  0.5007535E-09  0.8750709E-05  0.6152883E-03  0.1470911E+01  0.1570795E+01  0.1992372E-12 -0.5352027E-01
  0.1700000E+01  0.1711832E+02 -0.1570796E+01  0.2187341E-03  0.1532802E-03  0.4757219E+03  0.2192628E-09  0.3758539E-04  0.3141544E+01  0.1505601E+01  0.1570797E+01  0.1995933E-12  0.3061408E+01
  0.1720000E+01  0.1751604E+02 -0.1570796E+01  0.6419421E-04 -0.5259110E-03  0.4753209E+03 -0.7837421E-10  0.3022142E-05 -0.7126347E-03  0.1540672E+01  0.1570795E+01  0.5498822E-13 -0.2113986E+01
  0.1740000E+01  0.1791808E+02 -0.1570797E+01  0.1584005E-04  0.3137742E+01  0.4749140E+03  0.1725710E-09  0.5781651E-05  0.3141215E+01  0.1576131E+01  0.1570797E+01  0.2891699E-13 -0.1853479E+00
  0.1760000E+01  0.1832439E+02 -0.1570797E+01  0.7013232E-04 -0.3141198E+01  0.4745038E+03  0.9421101E-10  0.1710849E-05  0.3249172E-02  0.1611970E+01  0.1570795E+01  0.3411542E-12 -0.3118160E+01
  0.1780000E+01  0.1873498E+02 -0.1570796E+01  0.1217426E-04  0.1338738E-02  0.4740889E+03  0.0000000E+00  0.2254266E-04 -0.3141564E+01  0.1648191E+01  0.1570796E+01  0.2842670E-12  0.1874780E-01
  0.1800000E+01  0.1914985E+02 -0.1570796E+01  0.8176267E-04 -0.3141399E+01  0.4736693E+03  0.3617785E-09  0.2157129E-04 -0.3912659E-04  0.1684792E+01  0.1570796E+01  0.8728132E-13 -0.2926235E+01
  0.1820000E+01  0.1956896E+02 -0.1570797E+01  0.8831194E-04 -0.3139436E+01  0.4732451E+03  0.2518976E-09  0.1574891E-05 -0.5599439E-02  0.1721773E+01  0.1570796E+01  0.1992372E-12 -0.5352027E-01
  0.1840000E+01  0.1999232E+02 -0.1570796E+01  0.5762279E-04  0.3474916E-03  0.4728169E+03 -0.7091036E-09  0.2582465E-04 -0.2749829E-03  0.1759137E+01  0.1570795E+01  0.6135507E-13 -0.2755710E+01
  0.1860000E+01  0.2041991E+02 -0.1570797E+01  0.1191348E-04  0.3141554E+01  0.4723843E+03 -0.1577228E-10  0.3101490E-04  0.3141535E+01  0.1796871E+01  0.1570796E+01  0.5753313E-13  0.2986596E+01
  0.1880000E+01  0.2085171E+02 -0.1570797E+01  0.1863392E-04  0.1299480E-02  0.4719475E+03 -0.8367049E-09  0.4097873E-06  0.3136479E+01  0.1834990E+01  0.1570797E+01  0.3137722E-12 -0.8502182E-01
  0.1900000E+01  0.2128772E+02 -0.1570797E+01  0.9817645E-04  0.1764436E-02  0.4715062E+03 -0.1580166E-10  0.5396125E-05  0.3969603E-02  0.1873484E+01  0.1570796E+01  0.1989599E-12  0.8928334E-02
  0.1920000E+01  0.2172791E+02 -0.1570796E+01  0.4745277E-04  0.9420628E-03  0.4710608E+03  0.2040341E-08  0.3802613E-05 -0.3138133E+01  0.1912349E+01  0.1570796E+01  0.8675098E-13  0.1853479E+00
  0.1940000E+01  0.2217228E+02 -0.1570796E+01  0.2157693E-04  0.3139499E+01  0.4706103E+03 -0.9182410E-09  0.6571418E-05 -0.1319798E-02  0.1951589E+01  0.1570798E+01  0.1240910E-12  0.4124104E+00
  0.1960000E+01  0.2262081E+02 -0.1570796E+01  0.4418946E-04 -0.1749282E-02  0.4701560E+03 -0.9825164E-09  0.9461307E-05  0.4306526E-03  0.1991201E+01  0.1570796E+01  0.1425077E-12 -0.7485985E-01
  0.1980000E+01  0.2307348E+02 -0.1570797E+01  0.9135157E-04  0.3141547E+01  0.4696974E+03  0.1110376E-09  0.3260934E-04 -0.7140000E-03  0.2031189E+01  0.1570797E+01  0.1279155E-11 -0.1666512E-01
  0.2000000E+01  0.2353030E+02 -0.1570796E+01  0.7779151E-04 -0.8979025E-04  0.4692343E+03  0.2858070E-09  0.1988281E-04 -0.6733336E-04  0.2071543E+01  0.1570796E+01  0.7682923E-12 -0.4857288E-01
  0.2020000E+01  0.2399122E+02 -0.1570796E+01  0.9809437E-04 -0.3140776E+01  0.4687668E+03  0.1271520E-09  0.3490602E-05 -0.3139975E+01  0.2112269E+01  0.1570796E+01  0.2561898E-12  0.5549851E-01
  0.2040000E+01  0.2445628E+02 -0.1570796E+01  0.1539812E-03  0.3140997E+01  0.4682954E+03 -0.1145520E-08  0.1693147E-05  0.3139805E+01  0.2153359E+01  0.1570796E+01  0.8817890E-12  0.4030075E-01
  0.2060000E+01  0.2492541E+02 -0.1570797E+01  0.3992770E-04 -0.1376189E-02  0.4678195E+03  0.4777856E-10  0.2529488E-05 -0.3138049E+01  0.2194821E+01  0.1570796E+01  0.4554269E-12 -0.5463308E-01
  0.2080000E+01  0.2539862E+02 -0.1570797E+01  0.1225695E-03  0.3141410E+01  0.4673390E+03 -0.8290132E-09  0.1391401E-05 -0.2593702E-02  0.2236651E+01  0.1570796E+01  0.4831691E-12  0.3141593E+01
  0.2100000E+01  0.2587589E+02 -0.1570796E+01  0.9314721E-04 -0.3140583E+01  0.4668544E+03  0.1276729E-08  0.5115132E-06  0.3112457E+01  0.2278843E+01  0.1570795E+01  0.2274014E-12 -0.1562373E-01
  0.2120000E+01  0.2635723E+02 -0.1570796E+01  0.3866858E-04  0.1842483E-02  0.4663655E+03 -0.9745261E-09  0.2107636E-05  0.3134495E+01  0.2321399E+01  0.1570796E+01  0.6253003E-12 -0.3133070E+01
  0.2140000E+01  0.2684259E+02 -0.1570796E+01  0.7808485E-05  0.8408676E-02  0.4658730E+03 -0.2015084E-08  0.5544196E-05  0.3401633E-02  0.2364320E+01  0.1570796E+01  0.3982250E-12 -0.3101436E+01
  0.2160000E+01  0.2733198E+02 -0.1570797E+01  0.9354949E-04  0.1244425E-03  0.4653757E+03 -0.2081276E-08  0.2255718E-05 -0.6967270E-02  0.2407602E+01  0.1570797E+01  0.7390691E-12  0.3124767E+01
  0.2180000E+01  0.2782537E+02 -0.1570797E+01  0.2250076E-04 -0.5794701E-03  0.4648735E+03  0.1282169E-09  0.9685890E-06 -0.3136304E+01  0.2451240E+01  0.1570796E+01  0.2291431E-12 -0.3017238E+01
  0.2200000E+01  0.2832273E+02 -0.1570796E+01  0.9442121E-04 -0.1923380E-03  0.4643679E+03 -0.3529804E-09  0.1845416E-04 -0.7885439E-03  0.2495243E+01  0.1570796E+01  0.8424128E-13  0.8301444E+00
  0.2220000E+01  0.2882411E+02 -0.1570796E+01  0.1416360E-04  0.3139094E+01  0.4638584E+03 -0.9637312E-10  0.5828217E-05  0.1498082E-03  0.2539604E+01  0.1570796E+01  0.3427264E-12  0.9863719E-01
  0.2240000E+01  0.2932943E+02 -0.1570797E+01  0.2916170E-04 -0.2954130E-02  0.4633441E+03 -0.2186882E-08  0.1137424E-04  0.4656923E-03  0.2584320E+01  0.1570797E+01  0.1141853E-12  0.3048116E+01
  0.2260000E+01  0.2983867E+02 -0.1570796E+01  0.1330748E-03 -0.3141348E+01  0.4628259E+03 -0.6117247E-09  0.2526689E-05 -0.2902683E-02  0.2629393E+01  0.1570796E+01  0.5684592E-12 -0.3132218E+01
  0.2280000E+01  0.3035188E+02 -0.1570796E+01  0.4215586E-04 -0.4760922E-02  0.4623032E+03  0.2030644E-08  0.1235959E-04  0.3140519E+01  0.2674819E+01  0.1570796E+01  0.5709267E-13 -0.9347678E-01
  0.2300000E+01  0.3086897E+02 -0.1570797E+01  0.1662523E-03 -0.1904634E-03  0.4617762E+03  0.2065230E-08  0.1248997E-04  0.2097159E-03  0.2720601E+01  0.1570796E+01  0.4976970E-13 -0.9629943E+00
  0.2320000E+01  0.3138996E+02 -0.1570796E+01  0.5050750E-04 -0.3140744E+01  0.4612461E+03 -0.6461263E-10  0.5217436E-07 -0.3113698E+01  0.2766732E+01  0.1570796E+01  0.2575717E-12  0.3024081E+01
  0.2340000E+01  0.3191483E+02 -0.1570796E+01  0.7985816E-05  0.3102047E+01  0.4607109E+03  0.3234384E-10  0.1578639E-05  0.7706337E-02  0.2813212E+01  0.1570796E+01  0.5728579E-13  0.2089942E+01
  0.2360000E+01  0.3244358E+02 -0.1570797E+01  0.9739433E-05 -0.1769134E-01  0.4601719E+03  0.3238173E-09  0.1166579E-04  0.2759254E-02  0.2860047E+01  0.1570797E+01  0.1464821E-12 -0.2449787E+00
  0.2380000E+01  0.3297616E+02 -0.1570796E+01  0.6327778E-04  0.3141519E+01  0.4596289E+03  0.0000000E+00  0.1200475E-05  0.3141011E+01  0.2907229E+01  0.1570796E+01  0.4832507E-12  0.1838028E-01
  0.2400000E+01  0.3351260E+02 -0.1570796E+01  0.2655398E-04 -0.3138647E+01  0.4590815E+03 -0.4219623E-09  0.1433119E-04  0.6661034E-03  0.2954756E+01  0.1570796E+01  0.1421085E-13 -0.1570796E+01
  0.2420000E+01  0.3405285E+02 -0.1570797E+01  0.3577061E-04  0.4556311E-02  0.4585301E+03 -0.3574744E-09  0.8717200E-05  0.2176813E-02  0.3002627E+01  0.1570796E+01  0.4689716E-13 -0.2221873E+01
  0.2440000E+01  0.3459689E+02 -0.1570797E+01  0.8804353E-04  0.3141011E+01  0.4579746E+03 -0.2147448E-08  0.1453515E-04 -0.2442814E-03  0.3050846E+01  0.1570797E+01  0.1753562E-12 -0.2906442E+01
  0.2460000E+01  0.3514470E+02 -0.1570796E+01  0.7081780E-04  0.3140620E+01  0.4574150E+03 -0.3257690E-09  0.1822598E-05  0.3141561E+01  0.3099410E+01  0.1570797E+01  0.5704540E-12  0.8417562E-01
  0.2480000E+01  0.3569630E+02 -0.1570796E+01  0.5020947E-04  0.3141203E+01  0.4568515E+03 -0.1206832E-08  0.1902413E-04  0.3140721E+01  0.3148311E+01  0.1570796E+01  0.8165447E-13  0.2340811E+01
  0.2500000E+01  0.3625163E+02 -0.1570797E+01  0.4483786E-04  0.3406434E-02  0.4562837E+03  0.1306307E-09  0.1000210E-06  0.2116624E+00  0.3197553E+01  0.1570796E+01  0.2012307E-12  0.1506359E+00
  0.2520000E+01  0.3681071E+02 -0.1570796E+01  0.4416725E-04 -0.3138556E+01  0.4557124E+03  0.1602232E-08  0.4107134E-06 -0.7086167E-03  0.3247134E+01  0.1570797E+01  0.4561330E-12  0.3063626E+01
  0.2540000E+01  0.3737347E+02 -0.1570796E+01  0.1302077E-04  0.2661077E-01  0.4551364E+03 -0.1637000E-09  0.1216494E-04 -0.3140865E+01  0.3297055E+01  0.1570796E+01  0.3127650E-12 -0.3113191E+01
  0.2560000E+01  0.3793998E+02 -0.1570797E+01  0.3822432E-05 -0.1218263E-01  0.4545570E+03  0.4917258E-09  0.1087398E-06  0.1737729E+00  0.3347309E+01  0.1570796E+01  0.8747543E-13 -0.2916316E+01
  0.2580000E+01  0.3851013E+02 -0.1570797E+01  0.2879675E-04  0.3137388E+01  0.4539732E+03 -0.4135809E-08  0.1568166E-04 -0.3139154E+01  0.3397897E+01  0.1570796E+01  0.3983002E-12 -0.3096979E+01
  0.2600000E+01  0.3908393E+02 -0.1570796E+01  0.1388864E-03  0.1381363E-02  0.4533857E+03  0.4601298E-09  0.1739711E-05  0.3140924E+01  0.3448818E+01  0.1570797E+01  0.6827129E-12  0.3099950E+01
  0.2620000E+01  0.3966143E+02 -0.1570797E+01  0.3007812E-04  0.2910569E-02  0.4527939E+03 -0.1579650E-08  0.2100971E-04 -0.5097743E-03  0.3500078E+01  0.1570796E+01  0.5400592E-12 -0.3128436E+01
  0.2640000E+01  0.4024248E+02 -0.1570797E+01  0.1183899E-03 -0.1494650E-02  0.4521983E+03 -0.3031650E-08  0.4946277E-05 -0.3138556E+01  0.3551664E+01  0.1570796E+01  0.2089769E-12  0.2830594E+01
  0.2660000E+01  0.4082717E+02 -0.1570796E+01  0.1222717E-03  0.1888975E-02  0.4515988E+03  0.1583830E-08  0.1531286E-04 -0.2660862E-02  0.3603575E+01  0.1570797E+01  0.5684453E-12 -0.3135343E+01
  0.2680000E+01  0.4141547E+02 -0.1570797E+01  0.1197681E-03 -0.3140807E+01  0.4509954E+03 -0.4956091E-09  0.5841301E-05 -0.3966019E-02  0.3655819E+01  0.1570795E+01  0.5401176E-12 -0.3121858E+01
  0.2700000E+01  0.4200732E+02 -0.1570796E+01  0.4953899E-04  0.3139844E+01  0.4503882E+03  0.1588087E-08  0.5004928E-05  0.3141221E+01  0.3708389E+01  0.1570796E+01  0.2842393E-12  0.1249935E-01
  0.2720000E+01  0.4260273E+02 -0.1570796E+01  0.5020204E-04  0.3140424E+01  0.4497771E+03  0.1258944E-08  0.1590420E-04  0.1683551E-03  0.3761284E+01  0.1570797E+01  0.9099387E-13  0.2245537E+01
  0.2740000E+01  0.4320167E+02 -0.1570797E+01  0.1302390E-04 -0.3134942E+01  0.4491619E+03  0.2919442E-08  0.1097751E-04 -0.1166539E-02  0.3814497E+01  0.1570796E+01  0.1992372E-12 -0.3088072E+01
  0.2760000E+01  0.4380412E+02 -0.1570797E+01  0.4465883E-04 -0.1584917E-02  0.4485428E+03 -0.2159382E-08  0.5797569E-05 -0.3136151E+01  0.3868041E+01  0.1570796E+01  0.3552714E-13 -0.6435011E+00
  0.2780000E+01  0.4441009E+02 -0.1570796E+01  0.6119985E-04 -0.3136525E+01  0.4479200E+03  0.9980238E-10  0.7876195E-05  0.3141474E+01  0.3921897E+01  0.1570796E+01  0.3160318E-12  0.1466665E+00
  0.2800000E+01  0.4501952E+02 -0.1570796E+01  0.1455193E-04  0.3130200E+01  0.4472935E+03  0.4330828E-09  0.6551773E-07  0.3041924E+01  0.3976068E+01  0.1570796E+01  0.2015050E-12 -0.2982241E+01
  0.2820000E+01  0.4563240E+02 -0.1570796E+01  0.3398219E-04 -0.2356935E-02  0.4466626E+03  0.1334445E-09  0.1047086E-04  0.2668327E-03  0.4030564E+01  0.1570796E+01  0.3417260E-12  0.6241881E-01
  0.2840000E+01  0.4624873E+02 -0.1570796E+01  0.1200363E-03 -0.3141368E+01  0.4460285E+03 -0.1937695E-08  0.9875745E-05 -0.3141498E+01  0.4085374E+01  0.1570796E+01  0.4019437E-13  0.2356194E+01
  0.2860000E+01  0.4686852E+02 -0.1570796E+01  0.1237543E-04  0.1806139E-02  0.4453903E+03  0.1773190E-08  0.1066832E-04  0.1865995E-02  0.4140500E+01  0.1570796E+01  0.3980466E-12  0.2677931E-01
  0.2880000E+01  0.4749166E+02 -0.1570796E+01  0.6824545E-05 -0.4614209E-01  0.4447482E+03 -0.1139160E-08  0.2304465E-04  0.4344487E-03  0.4195937E+01  0.1570796E+01  0.5405848E-12  0.4602012E-01
  0.2900000E+01  0.4811820E+02 -0.1570796E+01  0.1489297E-03 -0.3141024E+01  0.4441024E+03  0.1979653E-08  0.3025029E-04 -0.9236169E-04  0.4251684E+01  0.1570796E+01  0.4288200E-12  0.3033680E+01
  0.2920000E+01  0.4874806E+02 -0.1570796E+01  0.1872343E-04  0.3631102E-02  0.4434531E+03  0.3696282E-09  0.4196540E-05  0.2496671E-03  0.4307736E+01  0.1570797E+01  0.5687117E-12 -0.3110353E+01
  0.2940000E+01  0.4938132E+02 -0.1570796E+01  0.1586750E-03  0.3141299E+01  0.4427999E+03  0.2355649E-09  0.8105314E-05 -0.3139769E+01  0.4364100E+01  0.1570796E+01  0.3127195E-12 -0.2272336E-01
  0.2960000E+01  0.5001791E+02 -0.1570796E+01  0.1084984E-04 -0.3123394E+01  0.4421431E+03  0.3370212E-10  0.1351443E-04 -0.3140309E+01  0.4420769E+01  0.1570796E+01  0.5989247E-12 -0.8314123E-01
  0.2980000E+01  0.5065773E+02 -0.1570796E+01  0.1157679E-05  0.7004651E-01  0.4414823E+03 -0.3375257E-10  0.1007228E-04 -0.3139477E+01  0.4477750E+01  0.1570796E+01  0.2424451E-12  0.6083250E+00
  0.3000000E+01  0.5130087E+02 -0.1570796E+01  0.7728492E-04 -0.1084546E-02  0.4408179E+03  0.4056412E-09  0.1906048E-04 -0.1850628E-02  0.4535016E+01  0.1570796E+01  0.2034995E-12  0.1853892E+01
  0.3020000E+01  0.5194725E+02 -0.1570796E+01  0.7934124E-04 -0.3141241E+01  0.4401497E+03 -0.2640671E-08  0.1484530E-05 -0.1411542E-02  0.4592598E+01  0.1570797E+01  0.2573695E-12  0.1106572E+00