 VARIABLES="Time (s)"
"AddedMass    1" "IRF    1"
"AddedMass    2" "IRF    2"
"AddedMass    3" "IRF    3"
"AddedMass    4" "IRF    4"
"AddedMass    5" "IRF    5"
"AddedMass    6" "IRF    6"
Zone t="DoF    1",I=   100,F=POINT
  0.0000000E+00  0.3783337E+01  0.2573304E+01 -0.1422403E-08  0.9703736E-09  0.1658258E-06  0.6226814E-05  0.7087298E-10  0.1055583E-09 -0.3927936E+00 -0.2478762E+00  0.1876436E-15 -0.3837454E-15
  0.1000000E+00  0.3783337E+01  0.2215627E+01 -0.1422403E-08  0.8334960E-09  0.1658258E-06  0.5447213E-05  0.7087298E-10  0.9099342E-10 -0.3927936E+00 -0.2133917E+00  0.1876436E-15 -0.3152485E-15
  0.2000000E+00  0.3783337E+01  0.1246306E+01 -0.1422403E-08  0.4595325E-09  0.1658258E-06  0.3306952E-05  0.7087298E-10  0.5144916E-10 -0.3927936E+00 -0.1199437E+00  0.1876436E-15 -0.1337435E-15
  0.3000000E+00  0.3783337E+01 -0.5448370E-01 -0.1422403E-08 -0.5076211E-10  0.1658258E-06  0.3500208E-06  0.7087298E-10 -0.1824993E-11 -0.3927936E+00  0.5440382E-02  0.1876436E-15  0.9712472E-16
  0.4000000E+00  0.3783337E+01 -0.1313538E+01 -0.1422403E-08 -0.5581727E-09  0.1658258E-06 -0.2675509E-05  0.7087298E-10 -0.5373607E-10 -0.3927936E+00  0.1267630E+00  0.1876436E-15  0.2961251E-15
  0.5000000E+00  0.3783337E+01 -0.2175141E+01 -0.1422403E-08 -0.9210267E-09  0.1658258E-06 -0.5010943E-05  0.7087298E-10 -0.8970746E-10 -0.3927936E+00  0.2097216E+00  0.1876436E-15  0.3926630E-15
  0.6000000E+00  0.3783337E+01 -0.2405179E+01 -0.1422403E-08 -0.1032919E-08  0.1658258E-06 -0.6081432E-05  0.7087298E-10 -0.9987276E-10 -0.3927936E+00  0.2317546E+00  0.1876436E-15  0.3514116E-15
  0.7000000E+00  0.3783337E+01 -0.1957586E+01 -0.1422403E-08 -0.8526863E-09  0.1658258E-06 -0.5640423E-05  0.7087298E-10 -0.8188137E-10 -0.3927936E+00  0.1884484E+00  0.1876436E-15  0.1848335E-15
  0.8000000E+00  0.3783337E+01 -0.9836718E+00 -0.1422403E-08 -0.4184797E-09  0.1658258E-06 -0.3826817E-05  0.7087298E-10 -0.4150194E-10 -0.3927936E+00  0.9443059E-01  0.1876436E-15 -0.5077640E-16
  0.9000000E+00  0.3783337E+01  0.2175163E+00 -0.1422403E-08  0.1587001E-09  0.1658258E-06 -0.1121273E-05  0.7087298E-10  0.9145980E-11 -0.3927936E+00 -0.2142647E-01  0.1876436E-15 -0.2744271E-15
  0.1000000E+01  0.3783337E+01  0.1291649E+01 -0.1422403E-08  0.7217200E-09  0.1658258E-06  0.1785078E-05  0.7087298E-10  0.5520357E-10 -0.3927936E+00 -0.1249345E+00  0.1876436E-15 -0.4082221E-15
  0.1100000E+01  0.3783337E+01  0.1935550E+01 -0.1422403E-08  0.1108512E-08  0.1658258E-06  0.4173010E-05  0.7087298E-10  0.8345859E-10 -0.3927936E+00 -0.1868623E+00  0.1876436E-15 -0.4042756E-15
  0.1200000E+01  0.3783337E+01  0.1985114E+01 -0.1422403E-08  0.1197516E-08  0.1658258E-06  0.5479441E-05  0.7087298E-10  0.8620617E-10 -0.3927936E+00 -0.1914157E+00  0.1876436E-15 -0.2614917E-15
  0.1300000E+01  0.3783337E+01  0.1458635E+01 -0.1422403E-08  0.9449942E-09  0.1658258E-06  0.5434960E-05  0.7087298E-10  0.6344413E-10 -0.3927936E+00 -0.1404112E+00  0.1876436E-15 -0.2639010E-16
  0.1400000E+01  0.3783337E+01  0.5437673E+00 -0.1422403E-08  0.4029029E-09  0.1658258E-06  0.4119759E-05  0.7087298E-10  0.2275534E-10 -0.3927936E+00 -0.5200411E-01  0.1876436E-15  0.2223908E-15
  0.1500000E+01  0.3783337E+01 -0.4660976E+00 -0.1422403E-08 -0.2894553E-09  0.1658258E-06  0.1926096E-05  0.7087298E-10 -0.2307778E-10 -0.3927936E+00  0.4546269E-01  0.1876436E-15  0.4006895E-15
  0.1600000E+01  0.3783337E+01 -0.1264896E+01 -0.1422403E-08 -0.9398224E-09  0.1658258E-06 -0.5590725E-06  0.7087298E-10 -0.6000207E-10 -0.3927936E+00  0.1224493E+00  0.1876436E-15  0.4474661E-15
  0.1700000E+01  0.3783337E+01 -0.1626922E+01 -0.1422403E-08 -0.1355564E-08  0.1658258E-06 -0.2716493E-05  0.7087298E-10 -0.7697622E-10 -0.3927936E+00  0.1571983E+00  0.1876436E-15  0.3457260E-15
  0.1800000E+01  0.3783337E+01 -0.1471303E+01 -0.1422403E-08 -0.1400390E-08  0.1658258E-06 -0.4056340E-05  0.7087298E-10 -0.6930572E-10 -0.3927936E+00  0.1419529E+00  0.1876436E-15  0.1285462E-15
  0.1900000E+01  0.3783337E+01 -0.8792613E+00 -0.1422403E-08 -0.1038641E-08  0.1658258E-06 -0.4335574E-05  0.7087298E-10 -0.4001532E-10 -0.3927936E+00  0.8460882E-01  0.1876436E-15 -0.1319008E-15
  0.2000000E+01  0.3783337E+01 -0.6075185E-01 -0.1422403E-08 -0.3528374E-09  0.1658258E-06 -0.3601445E-05  0.7087298E-10  0.1164238E-11 -0.3927936E+00  0.5481115E-02  0.1876436E-15 -0.3486441E-15
  0.2100000E+01  0.3783337E+01  0.7170264E+00 -0.1422403E-08  0.4729714E-09  0.1658258E-06 -0.2153456E-05  0.7087298E-10  0.4088415E-10 -0.3927936E+00 -0.6961062E-01  0.1876436E-15 -0.4492881E-15
  0.2200000E+01  0.3783337E+01  0.1215413E+01 -0.1422403E-08  0.1201681E-08  0.1658258E-06 -0.4395174E-06  0.7087298E-10  0.6639223E-10 -0.3927936E+00 -0.1176294E+00  0.1876436E-15 -0.4004995E-15
  0.2300000E+01  0.3783337E+01  0.1296987E+01 -0.1422403E-08  0.1611098E-08  0.1658258E-06  0.1080323E-05  0.7087298E-10  0.6956636E-10 -0.3927936E+00 -0.1253388E+00  0.1876436E-15 -0.2192731E-15
  0.2400000E+01  0.3783337E+01  0.9630128E+00 -0.1422403E-08  0.1562022E-08  0.1658258E-06  0.2061475E-05  0.7087298E-10  0.4950290E-10 -0.3927936E+00 -0.9290872E-01  0.1876436E-15  0.3285467E-16
  0.2500000E+01  0.3783337E+01  0.3454953E+00 -0.1422403E-08  0.1045574E-08  0.1658258E-06  0.2357516E-05  0.7087298E-10  0.1283461E-10 -0.3927936E+00 -0.3313524E-01  0.1876436E-15  0.2706792E-15
  0.2600000E+01  0.3783337E+01 -0.3415862E+00 -0.1422403E-08  0.1937141E-09  0.1658258E-06  0.2036962E-05  0.7087298E-10 -0.2834798E-10 -0.3927936E+00  0.3328202E-01  0.1876436E-15  0.4142017E-15
  0.2700000E+01  0.3783337E+01 -0.8745344E+00 -0.1422403E-08 -0.7527683E-09  0.1658258E-06  0.1333951E-05  0.7087298E-10 -0.6034402E-10 -0.3927936E+00  0.8472727E-01  0.1876436E-15  0.4156868E-15
  0.2800000E+01  0.3783337E+01 -0.1091685E+01 -0.1422403E-08 -0.1511735E-08  0.1658258E-06  0.5528187E-06  0.7087298E-10 -0.7226413E-10 -0.3927936E+00  0.1056002E+00  0.1876436E-15  0.2757332E-15
  0.2900000E+01  0.3783337E+01 -0.9417802E+00 -0.1422403E-08 -0.1843904E-08  0.1658258E-06 -0.4022752E-07  0.7087298E-10 -0.5962469E-10 -0.3927936E+00  0.9098344E-01  0.1876436E-15  0.4290818E-16
  0.3000000E+01  0.3783337E+01 -0.4946137E+00 -0.1422403E-08 -0.1628695E-08  0.1658258E-06 -0.3026002E-06  0.7087298E-10 -0.2595079E-10 -0.3927936E+00  0.4766004E-01  0.1876436E-15 -0.2028852E-15
  0.3100000E+01  0.3783337E+01  0.8774178E-01 -0.1422403E-08 -0.9075600E-09  0.1658258E-06 -0.2511563E-06  0.7087298E-10  0.1817045E-10 -0.3927936E+00 -0.8677675E-02  0.1876436E-15 -0.3776404E-15
  0.3200000E+01  0.3783337E+01  0.6080484E+00 -0.1422403E-08  0.1205766E-09  0.1658258E-06 -0.3866101E-07  0.7087298E-10  0.5834318E-10 -0.3927936E+00 -0.5895576E-01  0.1876436E-15 -0.4217898E-15
  0.3300000E+01  0.3783337E+01  0.8996503E+00 -0.1422403E-08  0.1153033E-08  0.1658258E-06  0.1187431E-06  0.7087298E-10  0.8094204E-10 -0.3927936E+00 -0.8707478E-01  0.1876436E-15 -0.3203817E-15
  0.3400000E+01  0.3783337E+01  0.8791589E+00 -0.1422403E-08  0.1872099E-08  0.1658258E-06  0.3633434E-07  0.7087298E-10  0.7757855E-10 -0.3927936E+00 -0.8499861E-01  0.1876436E-15 -0.1080443E-15
  0.3500000E+01  0.3783337E+01  0.5695836E+00 -0.1422403E-08  0.2042828E-08  0.1658258E-06 -0.3564168E-06  0.7087298E-10  0.4802212E-10 -0.3927936E+00 -0.5498198E-01  0.1876436E-15  0.1428901E-15
  0.3600000E+01  0.3783337E+01  0.8767629E-01 -0.1422403E-08  0.1589736E-08  0.1658258E-06 -0.9753894E-06  0.7087298E-10  0.5881298E-12 -0.3927936E+00 -0.8337817E-02  0.1876436E-15  0.3470288E-15
  0.3700000E+01  0.3783337E+01 -0.3987982E+00 -0.1422403E-08  0.6273219E-09  0.1658258E-06 -0.1599959E-05  0.7087298E-10 -0.5021144E-10 -0.3927936E+00  0.3870102E-01  0.1876436E-15  0.4349169E-15
  0.3800000E+01  0.3783337E+01 -0.7286009E+00 -0.1422403E-08 -0.5673875E-09  0.1658258E-06 -0.1946028E-05  0.7087298E-10 -0.8809430E-10 -0.3927936E+00  0.7054768E-01  0.1876436E-15  0.3765399E-15
  0.3900000E+01  0.3783337E+01 -0.7998478E+00 -0.1422403E-08 -0.1634227E-08  0.1658258E-06 -0.1770931E-05  0.7087298E-10 -0.1001616E-09 -0.3927936E+00  0.7736730E-01  0.1876436E-15  0.1913750E-15
  0.4000000E+01  0.3783337E+01 -0.6009870E+00 -0.1422403E-08 -0.2238629E-08  0.1658258E-06 -0.9749417E-06  0.7087298E-10 -0.8116390E-10 -0.3927936E+00  0.5806641E-01  0.1876436E-15 -0.5835865E-16
  0.4100000E+01  0.3783337E+01 -0.2106290E+00 -0.1422403E-08 -0.2176763E-08  0.1658258E-06  0.3369586E-06  0.7087298E-10 -0.3548777E-10 -0.3927936E+00  0.2026875E-01  0.1876436E-15 -0.2888927E-15
  0.4200000E+01  0.3783337E+01  0.2324344E+00 -0.1422403E-08 -0.1443893E-08  0.1658258E-06  0.1858247E-05  0.7087298E-10  0.2384382E-10 -0.3927936E+00 -0.2259051E-01  0.1876436E-15 -0.4232861E-15
  0.4300000E+01  0.3783337E+01  0.5778865E+00 -0.1422403E-08 -0.2430380E-09  0.1658258E-06  0.3154130E-05  0.7087298E-10  0.7893999E-10 -0.3927936E+00 -0.5597357E-01  0.1876436E-15 -0.4173336E-15
  0.4400000E+01  0.3783337E+01  0.7143909E+00 -0.1422403E-08  0.1071088E-08  0.1658258E-06  0.3787134E-05  0.7087298E-10  0.1124813E-09 -0.3927936E+00 -0.6912376E-01  0.1876436E-15 -0.2742495E-15
  0.4500000E+01  0.3783337E+01  0.6050763E+00 -0.1422403E-08  0.2097504E-08  0.1658258E-06  0.3458473E-05  0.7087298E-10  0.1131653E-09 -0.3927936E+00 -0.5849325E-01  0.1876436E-15 -0.4320947E-16
  0.4600000E+01  0.3783337E+01  0.2968279E+00 -0.1422403E-08  0.2512336E-08  0.1658258E-06  0.2120830E-05  0.7087298E-10  0.7944875E-10 -0.3927936E+00 -0.2863543E-01  0.1876436E-15  0.1976260E-15
  0.4700000E+01  0.3783337E+01 -0.9871765E-01 -0.1422403E-08  0.2171920E-08  0.1658258E-06  0.2377492E-07  0.7087298E-10  0.2035859E-10 -0.3927936E+00  0.9639069E-02  0.1876436E-15  0.3677504E-15
  0.4800000E+01  0.3783337E+01 -0.4450609E+00 -0.1422403E-08  0.1162560E-08  0.1658258E-06 -0.2328438E-05  0.7087298E-10 -0.4696345E-10 -0.3927936E+00  0.4312422E-01  0.1876436E-15  0.4114953E-15
  0.4900000E+01  0.3783337E+01 -0.6275465E+00 -0.1422403E-08 -0.2203782E-09  0.1658258E-06 -0.4301304E-05  0.7087298E-10 -0.1023115E-09 -0.3927936E+00  0.6073669E-01  0.1876436E-15  0.3165482E-15
  0.5000000E+01  0.3783337E+01 -0.5909976E+00 -0.1422403E-08 -0.1559372E-08  0.1658258E-06 -0.5304989E-05  0.7087298E-10 -0.1285487E-09 -0.3927936E+00  0.5715332E-01  0.1876436E-15  0.1175816E-15
  0.5100000E+01  0.3783337E+01 -0.3560376E+00 -0.1422403E-08 -0.2442119E-08  0.1658258E-06 -0.4970801E-05  0.7087298E-10 -0.1169509E-09 -0.3927936E+00  0.3438500E-01  0.1876436E-15 -0.1160833E-15
  0.5200000E+01  0.3783337E+01 -0.9379680E-02 -0.1422403E-08 -0.2590243E-08  0.1658258E-06 -0.3276303E-05  0.7087298E-10 -0.7008030E-10 -0.3927936E+00  0.8321903E-03  0.1876436E-15 -0.3044443E-15
  0.5300000E+01  0.3783337E+01  0.3277365E+00 -0.1422403E-08 -0.1948767E-08  0.1658258E-06 -0.5784085E-06  0.7087298E-10 -0.1253303E-11 -0.3927936E+00 -0.3177208E-01  0.1876436E-15 -0.3841379E-15
  0.5400000E+01  0.3783337E+01  0.5416286E+00 -0.1422403E-08 -0.7072314E-09  0.1658258E-06  0.2461228E-05  0.7087298E-10  0.6930308E-10 -0.3927936E+00 -0.5243435E-01  0.1876436E-15 -0.3297930E-15
  0.5500000E+01  0.3783337E+01  0.5642441E+00 -0.1422403E-08  0.7556905E-09  0.1658258E-06  0.5043042E-05  0.7087298E-10  0.1204769E-09 -0.3927936E+00 -0.5458203E-01  0.1876436E-15 -0.1621758E-15
  0.5600000E+01  0.3783337E+01  0.3945686E+00 -0.1422403E-08  0.1988087E-08  0.1658258E-06  0.6445374E-05  0.7087298E-10  0.1366608E-09 -0.3927936E+00 -0.3813055E-01  0.1876436E-15  0.5949101E-16
  0.5700000E+01  0.3783337E+01  0.9669922E-01 -0.1422403E-08  0.2605705E-08  0.1658258E-06  0.6229585E-05  0.7087298E-10  0.1125496E-09 -0.3927936E+00 -0.9292522E-02  0.1876436E-15  0.2582694E-15
  0.5800000E+01  0.3783337E+01 -0.2239898E+00 -0.1422403E-08  0.2413651E-08  0.1658258E-06  0.4375304E-05  0.7087298E-10  0.5485862E-10 -0.3927936E+00  0.2173174E-01  0.1876436E-15  0.3660634E-15
  0.5900000E+01  0.3783337E+01 -0.4578705E+00 -0.1422403E-08  0.1469921E-08  0.1658258E-06  0.1304375E-05  0.7087298E-10 -0.1959111E-10 -0.3927936E+00  0.4433771E-01  0.1876436E-15  0.3468657E-15
  0.6000000E+01  0.3783337E+01 -0.5283191E+00 -0.1422403E-08  0.6971124E-10  0.1658258E-06 -0.2217499E-05  0.7087298E-10 -0.8886326E-10 -0.3927936E+00  0.5112021E-01  0.1876436E-15  0.2087303E-15
  0.6100000E+01  0.3783337E+01 -0.4166383E+00 -0.1422403E-08 -0.1345817E-08  0.1658258E-06 -0.5277839E-05  0.7087298E-10 -0.1324636E-09 -0.3927936E+00  0.4028173E-01  0.1876436E-15  0.4943885E-18
  0.6200000E+01  0.3783337E+01 -0.1665758E+00 -0.1422403E-08 -0.2328220E-08  0.1658258E-06 -0.7060928E-05  0.7087298E-10 -0.1374779E-09 -0.3927936E+00  0.1606568E-01  0.1876436E-15 -0.2054940E-15
  0.6300000E+01  0.3783337E+01  0.1324476E+00 -0.1422403E-08 -0.2564434E-08  0.1658258E-06 -0.7071013E-05  0.7087298E-10 -0.1024253E-09 -0.3927936E+00 -0.1286978E-01  0.1876436E-15 -0.3385612E-15
  0.6400000E+01  0.3783337E+01  0.3771051E+00 -0.1422403E-08 -0.1977814E-08  0.1658258E-06 -0.5272797E-05  0.7087298E-10 -0.3766300E-10 -0.3927936E+00 -0.3652709E-01  0.1876436E-15 -0.3540797E-15
  0.6500000E+01  0.3783337E+01  0.4856883E+00 -0.1422403E-08 -0.7547025E-09  0.1658258E-06 -0.2108647E-05  0.7087298E-10  0.3775829E-10 -0.3927936E+00 -0.4700630E-01  0.1876436E-15 -0.2486080E-15
  0.6600000E+01  0.3783337E+01  0.4252492E+00 -0.1422403E-08  0.7130067E-09  0.1658258E-06  0.1613843E-05  0.7087298E-10  0.1018181E-09 -0.3927936E+00 -0.4112894E-01  0.1876436E-15 -0.6065358E-16
  0.6700000E+01  0.3783337E+01  0.2213791E+00 -0.1422403E-08  0.1951895E-08  0.1658258E-06  0.4934424E-05  0.7087298E-10  0.1360712E-09 -0.3927936E+00 -0.2138087E-01  0.1876436E-15  0.1431190E-15
  0.6800000E+01  0.3783337E+01 -0.5218756E-01 -0.1422403E-08  0.2558603E-08  0.1658258E-06  0.6995227E-05  0.7087298E-10  0.1310349E-09 -0.3927936E+00  0.5096739E-02  0.1876436E-15  0.2913452E-15
  0.6900000E+01  0.3783337E+01 -0.3000635E+00 -0.1422403E-08  0.2330674E-08  0.1658258E-06  0.7268856E-05  0.7087298E-10  0.8881972E-10 -0.3927936E+00  0.2907267E-01  0.1876436E-15  0.3329252E-15
  0.7000000E+01  0.3783337E+01 -0.4383168E+00 -0.1422403E-08  0.1334068E-08  0.1658258E-06  0.5697062E-05  0.7087298E-10  0.2226396E-10 -0.3927936E+00  0.4242944E-01  0.1876436E-15  0.2547905E-15
  0.7100000E+01  0.3783337E+01 -0.4227684E+00 -0.1422403E-08 -0.1150615E-09  0.1658258E-06  0.2702923E-05  0.7087298E-10 -0.4908539E-10 -0.3927936E+00  0.4089979E-01  0.1876436E-15  0.8632218E-16
  0.7200000E+01  0.3783337E+01 -0.2629681E+00 -0.1422403E-08 -0.1549674E-08  0.1658258E-06 -0.9259365E-06  0.7087298E-10 -0.1048664E-09 -0.3927936E+00  0.2541640E-01  0.1876436E-15 -0.1110972E-15
  0.7300000E+01  0.3783337E+01 -0.1748743E-01 -0.1422403E-08 -0.2501134E-08  0.1658258E-06 -0.4249824E-05  0.7087298E-10 -0.1298456E-09 -0.3927936E+00  0.1653410E-02  0.1876436E-15 -0.2657552E-15
  0.7400000E+01  0.3783337E+01  0.2273906E+00 -0.1422403E-08 -0.2651014E-08  0.1658258E-06 -0.6426590E-05  0.7087298E-10 -0.1181478E-09 -0.3927936E+00 -0.2203763E-01  0.1876436E-15 -0.3209810E-15
  0.7500000E+01  0.3783337E+01  0.3878730E+00 -0.1422403E-08 -0.1936321E-08  0.1658258E-06 -0.6930126E-05  0.7087298E-10 -0.7456182E-10 -0.3927936E+00 -0.3755084E-01  0.1876436E-15 -0.2553518E-15
  0.7600000E+01  0.3783337E+01  0.4112197E+00 -0.1422403E-08 -0.5735599E-09  0.1658258E-06 -0.5679806E-05  0.7087298E-10 -0.1266640E-10 -0.3927936E+00 -0.3978886E-01  0.1876436E-15 -0.9067030E-16
  0.7700000E+01  0.3783337E+01  0.2929740E+00 -0.1422403E-08  0.1007246E-08  0.1658258E-06 -0.3048458E-05  0.7087298E-10  0.4952717E-10 -0.3927936E+00 -0.2832795E-01  0.1876436E-15  0.1151621E-15
  0.7800000E+01  0.3783337E+01  0.7726045E-01 -0.1422403E-08  0.2298386E-08  0.1658258E-06  0.2496703E-06  0.7087298E-10  0.9498533E-10 -0.3927936E+00 -0.7444173E-02  0.1876436E-15  0.2880253E-15
  0.7900000E+01  0.3783337E+01 -0.1595321E+00 -0.1422403E-08  0.2877390E-08  0.1658258E-06  0.3357139E-05  0.7087298E-10  0.1124590E-09 -0.3927936E+00  0.1546761E-01  0.1876436E-15  0.3634460E-15
  0.8000000E+01  0.3783337E+01 -0.3356950E+00 -0.1422403E-08  0.2544558E-08  0.1658258E-06  0.5501383E-05  0.7087298E-10  0.9927937E-10 -0.3927936E+00  0.3250187E-01  0.1876436E-15  0.3095293E-15
  0.8100000E+01  0.3783337E+01 -0.3922988E+00 -0.1422403E-08  0.1390575E-08  0.1658258E-06  0.6190793E-05  0.7087298E-10  0.6145590E-10 -0.3927936E+00  0.3796101E-01  0.1876436E-15  0.1389963E-15
  0.8200000E+01  0.3783337E+01 -0.3128265E+00 -0.1422403E-08 -0.2285349E-09  0.1658258E-06  0.5327958E-05  0.7087298E-10  0.1123656E-10 -0.3927936E+00  0.3025332E-01  0.1876436E-15 -0.9399047E-16
  0.8300000E+01  0.3783337E+01 -0.1278101E+00 -0.1422403E-08 -0.1802322E-08  0.1658258E-06  0.3214001E-05  0.7087298E-10 -0.3694220E-10 -0.3927936E+00  0.1233941E-01  0.1876436E-15 -0.3113649E-15
  0.8400001E+01  0.3783337E+01  0.9673913E-01 -0.1422403E-08 -0.2827726E-08  0.1658258E-06  0.4485855E-06  0.7087298E-10 -0.7075480E-10 -0.3927936E+00 -0.9389556E-02  0.1876436E-15 -0.4372456E-15
  0.8500000E+01  0.3783337E+01  0.2827940E+00 -0.1422403E-08 -0.2970608E-08  0.1658258E-06 -0.2242118E-05  0.7087298E-10 -0.8323212E-10 -0.3927936E+00 -0.2738339E-01  0.1876436E-15 -0.4238839E-15
  0.8600000E+01  0.3783337E+01  0.3673494E+00 -0.1422403E-08 -0.2174799E-08  0.1658258E-06 -0.4199722E-05  0.7087298E-10 -0.7406577E-10 -0.3927936E+00 -0.3554898E-01  0.1876436E-15 -0.2686228E-15
  0.8700000E+01  0.3783337E+01  0.3236811E+00 -0.1422403E-08 -0.6831293E-09  0.1658258E-06 -0.4997066E-05  0.7087298E-10 -0.4878923E-10 -0.3927936E+00 -0.3130629E-01  0.1876436E-15 -0.1604462E-16
  0.8800000E+01  0.3783337E+01  0.1696940E+00 -0.1422403E-08  0.1037263E-08  0.1658258E-06 -0.4530268E-05  0.7087298E-10 -0.1633295E-10 -0.3927936E+00 -0.1639386E-01  0.1876436E-15  0.2556282E-15
  0.8900001E+01  0.3783337E+01 -0.3921530E-01 -0.1422403E-08  0.2442066E-08  0.1658258E-06 -0.3019860E-05  0.7087298E-10  0.1408065E-10 -0.3927936E+00  0.3823767E-02  0.1876436E-15  0.4595100E-15
  0.9000000E+01  0.3783337E+01 -0.2300114E+00 -0.1422403E-08  0.3083085E-08  0.1658258E-06 -0.9279993E-06  0.7087298E-10  0.3563676E-10 -0.3927936E+00  0.2227851E-01  0.1876436E-15  0.5282864E-15
  0.9100000E+01  0.3783337E+01 -0.3374890E+00 -0.1422403E-08  0.2752086E-08  0.1658258E-06  0.1179941E-05  0.7087298E-10  0.4541180E-10 -0.3927936E+00  0.3266349E-01  0.1876436E-15  0.4363781E-15
  0.9200000E+01  0.3783337E+01 -0.3264897E+00 -0.1422403E-08  0.1548861E-08  0.1658258E-06  0.2787939E-05  0.7087298E-10  0.4434079E-10 -0.3927936E+00  0.3158180E-01  0.1876436E-15  0.2087393E-15
  0.9300000E+01  0.3783337E+01 -0.2033392E+00 -0.1422403E-08 -0.1488080E-09  0.1658258E-06  0.3555177E-05  0.7087298E-10  0.3592494E-10 -0.3927936E+00  0.1965149E-01  0.1876436E-15 -0.8664719E-16
  0.9400001E+01  0.3783337E+01 -0.1279303E-01 -0.1422403E-08 -0.1804119E-08  0.1658258E-06  0.3384320E-05  0.7087298E-10  0.2435369E-10 -0.3927936E+00  0.1207973E-02  0.1876436E-15 -0.3601152E-15
  0.9500000E+01  0.3783337E+01  0.1781575E+00 -0.1422403E-08 -0.2891812E-08  0.1658258E-06  0.2420505E-05  0.7087298E-10  0.1282853E-10 -0.3927936E+00 -0.1726463E-01  0.1876436E-15 -0.5285988E-15
  0.9600000E+01  0.3783337E+01  0.3037772E+00 -0.1422403E-08 -0.3065684E-08  0.1658258E-06  0.9881956E-06  0.7087298E-10  0.2710379E-11 -0.3927936E+00 -0.2940709E-01  0.1876436E-15 -0.5416612E-15
  0.9700000E+01  0.3783337E+01  0.3221633E+00 -0.1422403E-08 -0.2269449E-08  0.1658258E-06 -0.5104616E-06  0.7087298E-10 -0.6290188E-11 -0.3927936E+00 -0.3116915E-01  0.1876436E-15 -0.3969316E-15
  0.9800000E+01  0.3783337E+01  0.2291723E+00 -0.1422403E-08 -0.7552601E-09  0.1658258E-06 -0.1705271E-05  0.7087298E-10 -0.1512305E-10 -0.3927936E+00 -0.2215559E-01  0.1876436E-15 -0.1401469E-15
  0.9900001E+01  0.3783337E+01  0.5908026E-01 -0.1422403E-08  0.9962653E-09  0.1658258E-06 -0.2345860E-05  0.7087298E-10 -0.2415557E-10 -0.3927936E+00 -0.5688183E-02  0.1876436E-15  0.1499671E-15
Zone t="DoF    2",I=   100,F=POINT
  0.0000000E+00 -0.9795551E-10  0.1299774E-08  0.3783334E+01  0.2573300E+01  0.4510095E-10 -0.5327495E-08  0.3927931E+00  0.2478758E+00 -0.4886212E-10 -0.1609729E-09  0.6960370E-09  0.4822497E-09
  0.1000000E+00 -0.9795551E-10  0.1102494E-08  0.3783334E+01  0.2215623E+01  0.4510095E-10 -0.4416854E-08  0.3927931E+00  0.2133914E+00 -0.4886212E-10 -0.1336903E-09  0.6960370E-09  0.4153158E-09
  0.2000000E+00 -0.9795551E-10  0.5719008E-09  0.3783334E+01  0.1246304E+01  0.4510095E-10 -0.2011916E-08  0.3927931E+00  0.1199435E+00 -0.4886212E-10 -0.6085453E-10  0.6960370E-09  0.2339024E-09
  0.3000000E+00 -0.9795551E-10 -0.1274424E-09  0.3783334E+01 -0.5448358E-01  0.4510095E-10  0.1025067E-08  0.3927931E+00 -0.5440366E-02 -0.4886212E-10  0.3343010E-10  0.6960370E-09 -0.9609774E-11
  0.4000000E+00 -0.9795551E-10 -0.7791447E-09  0.3783334E+01 -0.1313536E+01  0.4510095E-10  0.3609741E-08  0.3927931E+00 -0.1267627E+00 -0.4886212E-10  0.1178161E-09  0.6960370E-09 -0.2454329E-09
  0.5000000E+00 -0.9795551E-10 -0.1182648E-08  0.3783334E+01 -0.2175137E+01  0.4510095E-10  0.4829739E-08  0.3927931E+00 -0.2097214E+00 -0.4886212E-10  0.1639455E-09  0.6960370E-09 -0.4070222E-09
  0.6000000E+00 -0.9795551E-10 -0.1215809E-08  0.3783334E+01 -0.2405174E+01  0.4510095E-10  0.4276600E-08  0.3927931E+00 -0.2317543E+00 -0.4886212E-10  0.1557584E-09  0.6960370E-09 -0.4505349E-09
  0.7000000E+00 -0.9795551E-10 -0.8728016E-09  0.3783334E+01 -0.1957583E+01  0.4510095E-10  0.2194322E-08  0.3927931E+00 -0.1884481E+00 -0.4886212E-10  0.9486158E-10  0.6960370E-09 -0.3672603E-09
  0.8000000E+00 -0.9795551E-10 -0.2654592E-09  0.3783334E+01 -0.9836704E+00  0.4510095E-10 -0.6105365E-09  0.3927931E+00 -0.9443046E-01 -0.4886212E-10  0.2030596E-12  0.6960370E-09 -0.1853836E-09
  0.9000000E+00 -0.9795551E-10  0.4123097E-09  0.3783334E+01  0.2175158E+00  0.4510095E-10 -0.3066035E-08  0.3927931E+00  0.2142641E-01 -0.4886212E-10 -0.9787393E-10  0.6960370E-09  0.3926214E-10
  0.1000000E+01 -0.9795551E-10  0.9458028E-09  0.3783334E+01  0.1291647E+01  0.4510095E-10 -0.4232314E-08  0.3927931E+00  0.1249343E+00 -0.4886212E-10 -0.1673154E-09  0.6960370E-09  0.2404530E-09
  0.1100000E+01 -0.9795551E-10  0.1167227E-08  0.3783334E+01  0.1935547E+01  0.4510095E-10 -0.3654560E-08  0.3927931E+00  0.1868620E+00 -0.4886212E-10 -0.1846900E-09  0.6960370E-09  0.3614551E-09
  0.1200000E+01 -0.9795551E-10  0.1008523E-08  0.3783334E+01  0.1985111E+01  0.4510095E-10 -0.1541089E-08  0.3927931E+00  0.1914154E+00 -0.4886212E-10 -0.1428602E-09  0.6960370E-09  0.3714639E-09
  0.1300000E+01 -0.9795551E-10  0.5227037E-09  0.3783334E+01  0.1458632E+01  0.4510095E-10  0.1302033E-08  0.3927931E+00  0.1404110E+00 -0.4886212E-10 -0.5351890E-10  0.6960370E-09  0.2737292E-09
  0.1400000E+01 -0.9795551E-10 -0.1329935E-09  0.3783334E+01  0.5437665E+00  0.4510095E-10  0.3760628E-08  0.3927931E+00  0.5200405E-01 -0.4886212E-10  0.5625328E-10  0.6960370E-09  0.1031610E-09
  0.1500000E+01 -0.9795551E-10 -0.7468645E-09  0.3783334E+01 -0.4660967E+00  0.4510095E-10  0.4824884E-08  0.3927931E+00 -0.4546262E-01 -0.4886212E-10  0.1523554E-09  0.6960370E-09 -0.8551718E-10
  0.1600000E+01 -0.9795551E-10 -0.1119773E-08  0.3783334E+01 -0.1264894E+01  0.4510095E-10  0.3975862E-08  0.3927931E+00 -0.1224491E+00 -0.4886212E-10  0.2043332E-09  0.6960370E-09 -0.2351275E-09
  0.1700000E+01 -0.9795551E-10 -0.1128401E-08  0.3783334E+01 -0.1626919E+01  0.4510095E-10  0.1403237E-08  0.3927931E+00 -0.1571981E+00 -0.4886212E-10  0.1949901E-09  0.6960370E-09 -0.3034118E-09
  0.1800000E+01 -0.9795551E-10 -0.7648208E-09  0.3783334E+01 -0.1471301E+01  0.4510095E-10 -0.2031367E-08  0.3927931E+00 -0.1419526E+00 -0.4886212E-10  0.1259108E-09  0.6960370E-09 -0.2750982E-09
  0.1900000E+01 -0.9795551E-10 -0.1399002E-09  0.3783334E+01 -0.8792596E+00  0.4510095E-10 -0.5080901E-08  0.3927931E+00 -0.8460870E-01 -0.4886212E-10  0.1714939E-10  0.6960370E-09 -0.1651670E-09
  0.2000000E+01 -0.9795551E-10  0.5506652E-09  0.3783334E+01 -0.6075162E-01  0.4510095E-10 -0.6554265E-08  0.3927931E+00 -0.5481112E-02 -0.4886212E-10 -0.9883397E-10  0.6960370E-09 -0.1266953E-10
  0.2100000E+01 -0.9795551E-10  0.1087188E-08  0.3783334E+01  0.7170253E+00  0.4510095E-10 -0.5758173E-08  0.3927931E+00  0.6961050E-01 -0.4886212E-10 -0.1870983E-09  0.6960370E-09  0.1325794E-09
  0.2200000E+01 -0.9795551E-10  0.1294779E-08  0.3783334E+01  0.1215411E+01  0.4510095E-10 -0.2779941E-08  0.3927931E+00  0.1176293E+00 -0.4886212E-10 -0.2209278E-09  0.6960370E-09  0.2259977E-09
  0.2300000E+01 -0.9795551E-10  0.1098697E-08  0.3783334E+01  0.1296985E+01  0.4510095E-10  0.1497350E-08  0.3927931E+00  0.1253386E+00 -0.4886212E-10 -0.1899989E-09  0.6960370E-09  0.2418171E-09
  0.2400000E+01 -0.9795551E-10  0.5489592E-09  0.3783334E+01  0.9630110E+00  0.4510095E-10  0.5664027E-08  0.3927931E+00  0.9290853E-01 -0.4886212E-10 -0.1034941E-09  0.6960370E-09  0.1801051E-09
  0.2500000E+01 -0.9795551E-10 -0.1935491E-09  0.3783334E+01  0.3454946E+00  0.4510095E-10  0.8253647E-08  0.3927931E+00  0.3313516E-01 -0.4886212E-10  0.1276048E-10  0.6960370E-09  0.6533012E-10
  0.2600000E+01 -0.9795551E-10 -0.9053323E-09  0.3783334E+01 -0.3415857E+00  0.4510095E-10  0.8255888E-08  0.3927931E+00 -0.3328197E-01 -0.4886212E-10  0.1242135E-09  0.6960370E-09 -0.6269464E-10
  0.2700000E+01 -0.9795551E-10 -0.1368136E-08  0.3783334E+01 -0.8745332E+00  0.4510095E-10  0.5493699E-08  0.3927931E+00 -0.8472712E-01 -0.4886212E-10  0.1980834E-09  0.6960370E-09 -0.1622631E-09
  0.2800000E+01 -0.9795551E-10 -0.1435659E-08  0.3783334E+01 -0.1091683E+01  0.4510095E-10  0.7274314E-09  0.3927931E+00 -0.1056000E+00 -0.4886212E-10  0.2131973E-09  0.6960370E-09 -0.2031572E-09
  0.2900000E+01 -0.9795551E-10 -0.1078671E-08  0.3783334E+01 -0.9417783E+00  0.4510095E-10 -0.4561084E-08  0.3927931E+00 -0.9098326E-01 -0.4886212E-10  0.1661755E-09  0.6960370E-09 -0.1756918E-09
  0.3000000E+01 -0.9795551E-10 -0.3948034E-09  0.3783334E+01 -0.4946123E+00  0.4510095E-10 -0.8641684E-08  0.3927931E+00 -0.4765995E-01 -0.4886212E-10  0.7214329E-10  0.6960370E-09 -0.9273712E-10
  0.3100000E+01 -0.9795551E-10  0.4199454E-09  0.3783334E+01  0.8774192E-01  0.4510095E-10 -0.1011267E-07  0.3927931E+00  0.8677685E-02 -0.4886212E-10 -0.4015476E-10  0.6960370E-09  0.1560416E-10
  0.3200000E+01 -0.9795551E-10  0.1129270E-08  0.3783334E+01  0.6080477E+00  0.4510095E-10 -0.8386658E-08  0.3927931E+00  0.5895568E-01 -0.4886212E-10 -0.1372401E-09  0.6960370E-09  0.1126146E-09
  0.3300000E+01 -0.9795551E-10  0.1526591E-08  0.3783334E+01  0.8996488E+00  0.4510095E-10 -0.3916663E-08  0.3927931E+00  0.8707464E-01 -0.4886212E-10 -0.1910140E-09  0.6960370E-09  0.1672062E-09
  0.3400000E+01 -0.9795551E-10  0.1495957E-08  0.3783334E+01  0.8791572E+00  0.4510095E-10  0.1922402E-08  0.3927931E+00  0.8499846E-01 -0.4886212E-10 -0.1870020E-09  0.6960370E-09  0.1637518E-09
  0.3500000E+01 -0.9795551E-10  0.1045682E-08  0.3783334E+01  0.5695824E+00  0.4510095E-10  0.7266141E-08  0.3927931E+00  0.5498187E-01 -0.4886212E-10 -0.1282922E-09  0.6960370E-09  0.1064242E-09
  0.3600000E+01 -0.9795551E-10  0.3050152E-09  0.3783334E+01  0.8767562E-01  0.4510095E-10  0.1036899E-07  0.3927931E+00  0.8337773E-02 -0.4886212E-10 -0.3408959E-10  0.6960370E-09  0.1687265E-10
  0.3700000E+01 -0.9795551E-10 -0.5147361E-09  0.3783334E+01 -0.3987981E+00  0.4510095E-10  0.1018691E-07  0.3927931E+00 -0.3870099E-01 -0.4886212E-10  0.6651575E-10  0.6960370E-09 -0.7370808E-10
  0.3800000E+01 -0.9795551E-10 -0.1182513E-08  0.3783334E+01 -0.7286001E+00  0.4510095E-10  0.6737656E-08  0.3927931E+00 -0.7054759E-01 -0.4886212E-10  0.1435479E-09  0.6960370E-09 -0.1352823E-09
  0.3900000E+01 -0.9795551E-10 -0.1514478E-08  0.3783334E+01 -0.7998465E+00  0.4510095E-10  0.1112882E-08  0.3927931E+00 -0.7736720E-01 -0.4886212E-10  0.1751068E-09  0.6960370E-09 -0.1488174E-09
  0.4000000E+01 -0.9795551E-10 -0.1425823E-08  0.3783334E+01 -0.6009856E+00  0.4510095E-10 -0.4868248E-08  0.3927931E+00 -0.5806630E-01 -0.4886212E-10  0.1535999E-09  0.6960370E-09 -0.1120739E-09
  0.4100000E+01 -0.9795551E-10 -0.9525952E-09  0.3783334E+01 -0.2106282E+00  0.4510095E-10 -0.9253635E-08  0.3927931E+00 -0.2026869E-01 -0.4886212E-10  0.8746789E-10  0.6960370E-09 -0.3960157E-10
  0.4200000E+01 -0.9795551E-10 -0.2379524E-09  0.3783334E+01  0.2324345E+00  0.4510095E-10 -0.1060483E-07  0.3927931E+00  0.2259050E-01 -0.4886212E-10 -0.1947522E-11  0.6960370E-09  0.4281638E-10
  0.4300000E+01 -0.9795551E-10  0.5120636E-09  0.3783334E+01  0.5778861E+00  0.4510095E-10 -0.8479444E-08  0.3927931E+00  0.5597352E-01 -0.4886212E-10 -0.8726393E-10  0.6960370E-09  0.1072070E-09
  0.4400000E+01 -0.9795551E-10  0.1089369E-08  0.3783334E+01  0.7143900E+00  0.4510095E-10 -0.3585407E-08  0.3927931E+00  0.6912369E-01 -0.4886212E-10 -0.1434449E-09  0.6960370E-09  0.1328093E-09
  0.4500000E+01 -0.9795551E-10  0.1342952E-08  0.3783334E+01  0.6050754E+00  0.4510095E-10  0.2448375E-08  0.3927931E+00  0.5849318E-01 -0.4886212E-10 -0.1551309E-09  0.6960370E-09  0.1126934E-09
  0.4600000E+01 -0.9795551E-10  0.1219188E-08  0.3783334E+01  0.2968274E+00  0.4510095E-10  0.7611709E-08  0.3927931E+00  0.2863538E-01 -0.4886212E-10 -0.1207720E-09  0.6960370E-09  0.5551251E-10
  0.4700000E+01 -0.9795551E-10  0.7724633E-09  0.3783334E+01 -0.9871786E-01  0.4510095E-10  0.1018452E-07  0.3927931E+00 -0.9639076E-02 -0.4886212E-10 -0.5246818E-10  0.6960370E-09 -0.1801177E-10
  0.4800000E+01 -0.9795551E-10  0.1443625E-09  0.3783334E+01 -0.4450606E+00  0.4510095E-10  0.9315133E-08  0.3927931E+00 -0.4312420E-01 -0.4886212E-10  0.2823492E-10  0.6960370E-09 -0.8249733E-10
  0.4900000E+01 -0.9795551E-10 -0.4810023E-09  0.3783334E+01 -0.6275459E+00  0.4510095E-10  0.5309992E-08  0.3927931E+00 -0.6073664E-01 -0.4886212E-10  0.9715486E-10  0.6960370E-09 -0.1165892E-09
  0.5000000E+01 -0.9795551E-10 -0.9313826E-09  0.3783334E+01 -0.5909969E+00  0.4510095E-10 -0.4654062E-09  0.3927931E+00 -0.5715327E-01 -0.4886212E-10  0.1347244E-09  0.6960370E-09 -0.1099716E-09