VARIABLES="w (rad/s)"
"A   1   1" "B   1   1"
"A   1   2" "B   1   2"
"A   1   3" "B   1   3"
"A   1   4" "B   1   4"
"A   1   5" "B   1   5"
"A   1   6" "B   1   6"
Zone t="Motion of body    1 in DoF   1",I=   300,F=POINT
  0.2000000E-01  0.3204387E+01 -0.3301243E-13  0.2728484E-08  0.1547655E-19  0.2975867E-06  0.6088631E-13  0.1563194E-08  0.3388752E-20 -0.3444161E+00  0.3581115E-14 -0.3122502E-14  0.7888609E-27
  0.4000000E-01  0.3496963E+01  0.7522769E-13  0.7867129E-08  0.1688772E-18  0.8250936E-06  0.2724991E-11  0.9123369E-09 -0.5083521E-19 -0.3655724E+00 -0.4770196E-14  0.8326673E-14  0.3635071E-26
  0.6000000E-01  0.3505404E+01 -0.3705683E-12  0.1527951E-07 -0.3736474E-18  0.7081932E-06  0.9786418E-11  0.6025402E-09 -0.4743385E-19 -0.3658943E+00 -0.2302601E-14  0.0000000E+00  0.4038968E-27
  0.8000000E-01  0.3496958E+01 -0.5227012E-12  0.1214175E-07  0.5231699E-17  0.9538780E-06  0.1019541E-10 -0.4547474E-09 -0.2373016E-18 -0.3655849E+00 -0.9791127E-14 -0.4683753E-14 -0.1938705E-25
  0.9999999E-01  0.3497393E+01 -0.3732576E-12 -0.2291927E-07  0.1104362E-16  0.9313226E-06  0.5051383E-10 -0.9731594E-09  0.7795879E-18 -0.3655731E+00  0.7364540E-14  0.2498002E-14 -0.2584939E-25
  0.1200000E+00  0.3505205E+01 -0.5550720E-11  0.7700389E-08  0.1084202E-17  0.8677792E-06  0.9168118E-10 -0.3145336E-08  0.3543139E-17 -0.3658756E+00  0.6323154E-12  0.4163336E-14 -0.1357093E-24
  0.1400000E+00  0.3507885E+01 -0.6114266E-11  0.5612882E-08 -0.1987139E-16  0.8689572E-06  0.1302868E-09  0.1136868E-08 -0.1251491E-17 -0.3659132E+00  0.2797750E-12  0.1982541E-14  0.2067952E-24
  0.1600000E+00  0.3497334E+01  0.4521174E-10  0.2546585E-08  0.5521300E-16  0.9516953E-06  0.1534832E-09 -0.5093170E-08  0.1068447E-16 -0.3656338E+00 -0.5623056E-11  0.3122502E-14  0.1809458E-24
  0.1800000E+00  0.3508805E+01  0.2303660E-09  0.1374348E-08  0.5936007E-17  0.7819229E-06  0.1435031E-09 -0.2041310E-08  0.3992066E-17 -0.3658915E+00 -0.2487877E-10 -0.7401487E-14  0.9822770E-24
  0.2000000E+00  0.3498022E+01  0.6355979E-09  0.3274181E-08  0.1181780E-16  0.6402843E-06  0.3956513E-09 -0.1484750E-08 -0.6647515E-17 -0.3656605E+00 -0.7064868E-10  0.1110223E-14 -0.1550964E-24
  0.2200000E+00  0.3506411E+01  0.9746079E-09 -0.4034849E-07  0.3778445E-16  0.8254905E-06  0.2895487E-09 -0.5663672E-09 -0.1667173E-16 -0.3657157E+00 -0.1067633E-09 -0.2270911E-14 -0.5169879E-24
  0.2400000E+00  0.3505711E+01  0.1034808E-08  0.3092282E-08 -0.1546343E-16  0.8338247E-06  0.8479878E-09 -0.1470350E-08 -0.5012741E-17 -0.3659249E+00 -0.1100809E-09  0.4625929E-14 -0.1033976E-24
  0.2600000E+00  0.3497565E+01  0.1156085E-08  0.1600711E-07 -0.1747598E-15  0.6581943E-06  0.3682828E-09 -0.2098834E-09 -0.3540598E-17 -0.3651700E+00 -0.1117881E-09  0.9394195E-14  0.1550964E-24
  0.2800000E+00  0.3509519E+01  0.1981602E-08 -0.3482066E-08  0.1049508E-15  0.6311374E-06  0.7723165E-09 -0.1844975E-08 -0.2603102E-16 -0.3660688E+00 -0.1861419E-09  0.3965082E-15 -0.1344168E-23
  0.3000000E+00  0.3507676E+01  0.3587127E-08  0.7955046E-08  0.1598114E-15  0.6755969E-06  0.1028550E-08 -0.2055458E-08 -0.4269046E-17 -0.3661159E+00 -0.3386597E-09 -0.1850372E-15  0.2688337E-23
  0.3200000E+00  0.3498970E+01  0.6825446E-08 -0.2637535E-08 -0.9757820E-18  0.3557943E-06  0.8278415E-09  0.2489742E-08 -0.7643625E-17 -0.3658040E+00 -0.6190807E-09  0.1214306E-14 -0.2026593E-22
  0.3400000E+00  0.3504420E+01  0.1123805E-07  0.1840389E-08 -0.3037934E-15  0.5074338E-06  0.7507242E-09 -0.2995983E-09 -0.8370041E-16 -0.3654798E+00 -0.1010721E-08  0.1061243E-13  0.1406207E-22
  0.3600000E+00  0.3510996E+01  0.1818763E-07 -0.2441488E-07 -0.7715183E-15  0.5348637E-06  0.2016773E-08 -0.2753748E-09 -0.2867715E-16 -0.3660868E+00 -0.1671178E-08  0.2775557E-14  0.2977850E-22
  0.3800000E+00  0.3507731E+01  0.2696168E-07 -0.1830478E-07  0.3521489E-15  0.5918800E-06  0.1632710E-08  0.1799842E-08  0.6884684E-17 -0.3661204E+00 -0.2458482E-08  0.2629476E-14 -0.1323489E-22
  0.4000000E+00  0.3500353E+01  0.3892410E-07 -0.3157766E-07  0.1150989E-14  0.4493631E-06  0.1032567E-08 -0.8094503E-09  0.3843497E-16 -0.3659017E+00 -0.3603314E-08 -0.4718448E-14 -0.3639595E-22
  0.4200000E+00  0.3502942E+01  0.5537980E-07  0.2508473E-07 -0.2697495E-15  0.3935947E-07  0.4598086E-09  0.1039423E-08 -0.8619407E-16 -0.3656088E+00 -0.5131160E-08  0.3700744E-14  0.4301339E-22
  0.4400000E+00  0.3510100E+01  0.7820599E-07  0.2877310E-07  0.9887924E-16  0.1105946E-06  0.1171444E-08  0.4836858E-09  0.1446326E-15 -0.3660938E+00 -0.7202730E-08  0.1261617E-14 -0.5293956E-22
  0.4600000E+00  0.3513955E+01  0.1069676E-06 -0.2973652E-08 -0.3590878E-15  0.2272629E-06 -0.7012343E-10  0.3084373E-09  0.2688821E-16 -0.3665510E+00 -0.9800190E-08  0.4102998E-14 -0.3970467E-22
  0.4800000E+00  0.3509000E+01  0.1451907E-06 -0.1752293E-07  0.8222589E-15  0.9410239E-07 -0.8361301E-10 -0.2728484E-09  0.5551115E-16 -0.3662437E+00 -0.1337188E-07 -0.4625929E-14 -0.7940934E-22
  0.5000000E+00  0.3502439E+01  0.1915431E-06 -0.5064066E-08 -0.2640249E-14  0.8428469E-07 -0.7040197E-09 -0.2430170E-08  0.2203099E-15 -0.3660318E+00 -0.1768810E-07 -0.8881784E-15  0.6617445E-22
  0.5200000E+00  0.3502237E+01  0.2534171E-06  0.6996113E-08 -0.5273559E-15  0.7701322E-07 -0.1705700E-09  0.2277235E-08  0.8673617E-18 -0.3656171E+00 -0.2382547E-07 -0.4270089E-15  0.1852885E-21
  0.5400000E+00  0.3508175E+01  0.3276280E-06  0.1088699E-07 -0.2935152E-14  0.1888515E-06  0.8195536E-09  0.1276661E-08 -0.1400789E-15 -0.3658193E+00 -0.3085726E-07  0.0000000E+00  0.1323489E-21
  0.5600000E+00  0.3514594E+01  0.4195884E-06 -0.4251238E-07  0.1589007E-14 -0.5321843E-07 -0.1574921E-08  0.1250555E-08  0.2706169E-15 -0.3665509E+00 -0.3977916E-07 -0.1189525E-14 -0.4235165E-21
  0.5800000E+00  0.3516798E+01  0.5328823E-06  0.1741212E-07  0.5488665E-14 -0.9634372E-08  0.5076083E-09  0.1693542E-08  0.4718448E-15 -0.3668482E+00 -0.5057384E-07 -0.3254102E-14  0.1852885E-21
  0.6000000E+00  0.3513022E+01  0.6715354E-06  0.9458745E-08 -0.4204970E-14  0.1777274E-06  0.2215025E-08 -0.2849750E-09  0.4423545E-16 -0.3666336E+00 -0.6374584E-07 -0.4255855E-14 -0.1270549E-20
  0.6199999E+00  0.3507842E+01  0.8414765E-06 -0.1356614E-07  0.7202572E-14  0.9688761E-07  0.3408054E-09  0.5427631E-09  0.4891920E-15 -0.3663316E+00 -0.7984061E-07 -0.1432546E-14  0.1588187E-21
  0.6400000E+00  0.3505699E+01  0.1049488E-05 -0.7457857E-08 -0.4010681E-14  0.9749783E-07 -0.1997547E-09 -0.9464429E-09  0.3469447E-16 -0.3664435E+00 -0.9947651E-07  0.5204170E-14 -0.1111731E-20
  0.6600000E+00  0.3507063E+01  0.1298210E-05 -0.2116642E-08 -0.1970646E-14  0.1178264E-06  0.2085106E-08  0.1369754E-08  0.3677614E-15 -0.3661079E+00 -0.1225473E-06 -0.5382899E-14 -0.1164670E-20
  0.6799999E+00  0.3511609E+01  0.1597722E-05 -0.1408112E-07  0.1429412E-13  0.2013301E-06  0.9368315E-09  0.1441817E-08  0.1526557E-15 -0.3662224E+00 -0.1505167E-06 -0.5387848E-14 -0.2541099E-20
  0.7000000E+00  0.3516970E+01  0.1959802E-05  0.7068073E-09 -0.2414735E-14  0.1722947E-06  0.1112427E-08 -0.4246041E-08  0.2255141E-15 -0.3668555E+00 -0.1842852E-06  0.3172066E-14  0.5293956E-21
  0.7200000E+00  0.3519034E+01  0.2389253E-05 -0.1269250E-07 -0.1437739E-13  0.2625812E-06  0.2259571E-08 -0.1558773E-08 -0.1904726E-14 -0.3669434E+00 -0.2246581E-06 -0.6630499E-14  0.4023406E-20
  0.7399999E+00  0.3520375E+01  0.2893494E-05 -0.2753066E-08 -0.2153833E-13  0.3026799E-06  0.3384562E-08 -0.4498312E-09  0.5377643E-15 -0.3673272E+00 -0.2719970E-06 -0.4050814E-14 -0.3176374E-20
  0.7600000E+00  0.3516416E+01  0.3487003E-05  0.7658903E-10  0.8326673E-15  0.1660450E-06  0.3054802E-08 -0.3063561E-08  0.1242062E-14 -0.3666187E+00 -0.3275727E-06 -0.7596263E-14  0.6564505E-20
  0.7800000E+00  0.3513792E+01  0.4180725E-05  0.7462521E-08 -0.3663736E-14 -0.8059523E-07 -0.4132625E-08  0.1546141E-08  0.2220446E-15 -0.3663235E+00 -0.3928445E-06  0.1708035E-14  0.1270549E-20
  0.8000000E+00  0.3513330E+01  0.4994430E-05  0.1695298E-07 -0.3108624E-13 -0.5413312E-07 -0.3726633E-08  0.5684342E-10 -0.3608225E-15 -0.3663914E+00 -0.4689682E-06 -0.4163336E-14 -0.8470329E-21
  0.8200000E+00  0.3515724E+01  0.5936849E-05 -0.1689442E-07  0.2653433E-13  0.1419699E-07 -0.1556627E-08  0.2300356E-08 -0.2983724E-15 -0.3666218E+00 -0.5575645E-06  0.8123583E-15  0.3388132E-20
  0.8400000E+00  0.3520219E+01  0.7028178E-05  0.1462121E-07 -0.8548717E-14 -0.7982765E-07 -0.2891397E-08  0.3921655E-08  0.1387779E-14 -0.3670554E+00 -0.6601185E-06 -0.1586033E-14 -0.6352747E-20
  0.8600000E+00  0.3525284E+01  0.8293759E-05  0.1949280E-07 -0.7116530E-13  0.1082933E-08 -0.1801585E-08  0.1785148E-08 -0.1970646E-14 -0.3675158E+00 -0.7789215E-06 -0.3614680E-14 -0.6776264E-20
  0.8800001E+00  0.3529079E+01  0.9749134E-05  0.1203840E-07 -0.3730349E-13  0.2963299E-07  0.3254630E-08  0.1008712E-08 -0.7979728E-14 -0.3677508E+00 -0.9152191E-06  0.1766264E-14  0.1016440E-19
  0.9000000E+00  0.3533480E+01  0.1141708E-04  0.1183556E-07 -0.3907985E-13  0.2173086E-06  0.6058926E-08  0.1602732E-08  0.3066991E-14 -0.3681431E+00 -0.1071740E-05  0.2467162E-15 -0.2541099E-20
  0.9200000E+00  0.3536878E+01  0.1331291E-04 -0.4808459E-08  0.3730349E-13  0.9414456E-07 -0.1474930E-08  0.1237704E-08  0.4829470E-14 -0.3685561E+00 -0.1249877E-05  0.9654113E-15  0.3388132E-20
  0.9399999E+00  0.3536149E+01  0.1547247E-04 -0.2786537E-08  0.8437695E-13 -0.1203784E-06 -0.2834266E-08  0.2709133E-09  0.7743806E-14 -0.3685538E+00 -0.1452911E-05  0.7086531E-15 -0.3218725E-19
  0.9600000E+00  0.3535021E+01  0.1792255E-04 -0.1734103E-07  0.1043610E-13  0.5917779E-07  0.3184638E-08 -0.5381177E-09  0.7216450E-15 -0.3684508E+00 -0.1683240E-05 -0.8789266E-14 -0.2541099E-20
  0.9800000E+00  0.3533215E+01  0.2068967E-04 -0.7721424E-08  0.9459100E-13  0.4053154E-06  0.1453388E-07  0.4157690E-09  0.1038059E-13 -0.3683802E+00 -0.1942981E-05 -0.1359457E-14 -0.2879912E-19
  0.9999999E+00  0.3530432E+01  0.2382370E-04  0.1781155E-07 -0.1487699E-12  0.1429580E-06  0.3361144E-08  0.4947652E-09 -0.5273559E-15 -0.3680468E+00 -0.2237792E-05 -0.2220446E-14 -0.5082198E-19
  0.1020000E+01  0.3534126E+01  0.2737028E-04 -0.9016481E-08  0.1452172E-12  0.6391430E-08  0.4167049E-09  0.1394559E-08 -0.1015854E-13 -0.3683587E+00 -0.2571150E-05  0.4353816E-15  0.4912791E-19
  0.1040000E+01  0.3537827E+01  0.3134920E-04 -0.1695858E-07  0.1203482E-12  0.1459669E-06  0.9840399E-08 -0.7835647E-09 -0.6383782E-14 -0.3687492E+00 -0.2944894E-05 -0.4697098E-14 -0.2032879E-19
  0.1060000E+01  0.3542476E+01  0.3581533E-04  0.6699373E-08  0.1540990E-12  0.4296384E-06  0.2527948E-07 -0.8580139E-09  0.3219647E-14 -0.3692603E+00 -0.3365000E-05 -0.2513713E-14 -0.1524659E-19
  0.1080000E+01  0.3546326E+01  0.4081690E-04  0.2975058E-07 -0.3375078E-13  0.2923318E-06  0.7342152E-08 -0.6400148E-09  0.2775558E-14 -0.3696942E+00 -0.3835252E-05 -0.1233581E-14  0.1355253E-19
  0.1100000E+01  0.3548373E+01  0.4640648E-04  0.1968477E-07  0.1767475E-12  0.1388517E-06  0.1703484E-08  0.4564010E-09 -0.8493206E-14 -0.3698498E+00 -0.4361243E-05 -0.2624164E-14  0.0000000E+00
  0.1120000E+01  0.3551528E+01  0.5264606E-04  0.4365575E-08 -0.1305622E-12  0.1334619E-06  0.5934552E-08  0.2153554E-08 -0.1787459E-13 -0.3701651E+00 -0.4947904E-05 -0.7731911E-14 -0.3388132E-19
  0.1140000E+01  0.3554248E+01  0.5956423E-04 -0.3951994E-07 -0.1891820E-12  0.4448291E-06  0.3043796E-07 -0.3318858E-09 -0.2942091E-13 -0.3704179E+00 -0.5598512E-05  0.2921640E-14  0.1355253E-19
  0.1160000E+01  0.3554080E+01  0.6724832E-04 -0.8229359E-08 -0.5684342E-13  0.3384073E-06  0.1872277E-07 -0.1881713E-09 -0.2553513E-13 -0.3702583E+00 -0.6320203E-05 -0.7656711E-15  0.2710505E-19
  0.1180000E+01  0.3554688E+01  0.7576089E-04 -0.7892564E-09  0.2842171E-13  0.1262810E-06  0.1236219E-07 -0.1726499E-09 -0.1043610E-13 -0.3702922E+00 -0.7120367E-05  0.7903283E-14 -0.1355253E-19
  0.1200000E+01  0.3555110E+01  0.8517747E-04  0.1993612E-07  0.2042810E-12  0.4245279E-06  0.2856206E-07 -0.1940255E-09  0.4340972E-13 -0.3703432E+00 -0.8006030E-05 -0.5181040E-14  0.8809143E-19
  0.1220000E+01  0.3554980E+01  0.9558546E-04  0.6679568E-08  0.2806644E-12  0.5175710E-06  0.3172528E-07 -0.1899502E-08 -0.1521006E-13 -0.3703789E+00 -0.8985559E-05  0.4004083E-14  0.1016439E-18
  0.1240000E+01  0.3553948E+01  0.1070308E-03  0.1966856E-07 -0.1238121E-11  0.4326143E-06  0.4294958E-07  0.5985062E-09 -0.6439294E-14 -0.3703822E+00 -0.1006294E-04  0.1790682E-14 -0.1626303E-18
  0.1260000E+01  0.3551707E+01  0.1196159E-03 -0.3972904E-08  0.6519230E-12  0.4967054E-06  0.2519062E-07  0.3060522E-09 -0.6172840E-13 -0.3701975E+00 -0.1124739E-04  0.3876969E-14 -0.1626303E-18
  0.1280000E+01  0.3553627E+01  0.1334949E-03 -0.2210072E-07 -0.3659295E-12  0.4845788E-06  0.3352773E-07  0.7617018E-09 -0.9392487E-13 -0.3703782E+00 -0.1255306E-04  0.2428613E-14 -0.3388132E-19
  0.1300000E+01  0.3554863E+01  0.1487616E-03  0.7880422E-08  0.1101341E-12  0.5917481E-06  0.4183630E-07 -0.5512937E-09  0.7793766E-13 -0.3705720E+00 -0.1399137E-04 -0.1878839E-14  0.1829591E-18
  0.1320000E+01  0.3556504E+01  0.1654741E-03 -0.1172972E-07 -0.5684342E-13  0.4085119E-06  0.4767224E-07  0.2075301E-08  0.1068034E-12 -0.3707367E+00 -0.1556370E-04 -0.2859665E-14  0.2981556E-18
  0.1340000E+01  0.3558553E+01  0.1837755E-03  0.1355283E-07  0.8455459E-12  0.3190127E-06  0.3697255E-07  0.1873288E-08  0.1554312E-14 -0.3707986E+00 -0.1728402E-04 -0.3314099E-14 -0.9486769E-19
  0.1360000E+01  0.3562125E+01  0.2038125E-03  0.4279975E-09 -0.3907985E-12  0.5882397E-06  0.6351598E-07 -0.1217118E-08 -0.5995204E-13 -0.3711047E+00 -0.1916864E-04  0.5551115E-14 -0.3659182E-18
  0.1380000E+01  0.3566357E+01  0.2257065E-03 -0.1248512E-07 -0.5755396E-12  0.6087340E-06  0.6687105E-07 -0.9543104E-09  0.2047251E-12 -0.3714802E+00 -0.2122760E-04  0.1930823E-14 -0.1219727E-18
  0.1400000E+01  0.3570976E+01  0.2495965E-03 -0.8897457E-08  0.1115552E-11  0.2541180E-06  0.3389954E-07  0.9120933E-09  0.2855494E-12 -0.3719120E+00 -0.2347540E-04 -0.5392512E-14 -0.2032879E-18
  0.1420000E+01  0.3575768E+01  0.2756240E-03  0.3033357E-08  0.3907985E-12  0.3338332E-06  0.4647472E-07 -0.5969360E-09  0.4112266E-12 -0.3724091E+00 -0.2592634E-04  0.1407325E-14 -0.9486769E-19
  0.1440000E+01  0.3579193E+01  0.3038915E-03 -0.2587007E-08 -0.4192202E-12  0.4022796E-06  0.3516379E-07  0.2978595E-08 -0.8482104E-13 -0.3727483E+00 -0.2858748E-04 -0.1696174E-14  0.1355253E-18
  0.1460000E+01  0.3580233E+01  0.3345558E-03 -0.1204021E-07  0.3304024E-11  0.4426972E-06  0.5599338E-07  0.9393959E-09 -0.1114664E-12 -0.3728341E+00 -0.3147431E-04 -0.1064597E-14  0.2168404E-18
  0.1480000E+01  0.3581237E+01  0.3678096E-03  0.8180536E-08 -0.8952838E-12  0.5115982E-06  0.7621452E-07 -0.2172955E-08 -0.7815970E-13 -0.3729290E+00 -0.3460465E-04 -0.2100422E-14 -0.2439455E-18
  0.1500000E+01  0.3581005E+01  0.4037637E-03  0.1715186E-07  0.3410605E-12  0.4035731E-06  0.6237474E-07 -0.9458745E-10  0.1252332E-12 -0.3729675E+00 -0.3799169E-04 -0.2664535E-14  0.8944668E-18
  0.1520000E+01  0.3579887E+01  0.4426488E-03  0.1225424E-08 -0.8242296E-12  0.7407691E-06  0.8718462E-07  0.3683454E-08 -0.3099743E-12 -0.3728951E+00 -0.4165493E-04 -0.7011935E-14 -0.5149960E-18
  0.1540000E+01  0.3577449E+01  0.4846585E-03  0.3326152E-08  0.2692957E-11  0.5424652E-06  0.8310838E-07 -0.2582020E-08  0.2762235E-12 -0.3725806E+00 -0.4560697E-04  0.0000000E+00  0.3252607E-18
  0.1560000E+01  0.3575040E+01  0.5299890E-03 -0.2044731E-07  0.9734435E-12  0.4537213E-07 -0.4268259E-08  0.2413659E-08  0.2602363E-12 -0.3723130E+00 -0.4987248E-04  0.4839434E-14 -0.8131516E-18
  0.1580000E+01  0.3573056E+01  0.5789216E-03 -0.1252570E-07  0.2771117E-12  0.3448251E-06  0.8037364E-07 -0.5664195E-09  0.1145750E-12 -0.3721292E+00 -0.5448106E-04  0.5621382E-15 -0.8402567E-18
  0.1600000E+01  0.3573857E+01  0.6318277E-03  0.8731149E-08 -0.2160050E-11  0.6624032E-06  0.1182918E-06 -0.1441549E-08  0.2309264E-12 -0.3722438E+00 -0.5946610E-04  0.2498002E-14 -0.8131516E-18
  0.1620000E+01  0.3576080E+01  0.6889054E-03 -0.3952372E-07 -0.3694822E-12  0.4380665E-06  0.5481729E-07 -0.7118761E-09  0.1110223E-12 -0.3724744E+00 -0.6484240E-04  0.6579099E-14 -0.1029992E-17
  0.1640000E+01  0.3579397E+01  0.7504246E-03 -0.2342504E-08  0.3694822E-12  0.3532211E-06  0.3917808E-07 -0.4281280E-09 -0.9414691E-13 -0.3728735E+00 -0.7064446E-04  0.5415722E-15  0.5421011E-18
  0.1660000E+01  0.3582386E+01  0.8165781E-03  0.1079998E-07 -0.3836931E-12  0.1408205E-06  0.3427431E-08 -0.8327904E-10  0.1563194E-12 -0.3732062E+00 -0.7688050E-04  0.8025709E-15 -0.3252607E-18
  0.1680000E+01  0.3585124E+01  0.8876097E-03  0.2203576E-07  0.2700062E-12  0.2899296E-06  0.3089235E-07 -0.1933759E-08  0.4050094E-12 -0.3734538E+00 -0.8357496E-04 -0.7930165E-15  0.1084202E-18
  0.1700000E+01  0.3588520E+01  0.9639792E-03  0.3560939E-08 -0.3751666E-11  0.3380153E-06  0.4878075E-07 -0.1512971E-08 -0.3108624E-12 -0.3737514E+00 -0.9076878E-04 -0.2089831E-14  0.0000000E+00
  0.1720000E+01  0.3592236E+01  0.1045856E-02  0.1475497E-07 -0.2344791E-11  0.5468813E-06  0.1036985E-06  0.2208169E-08  0.2167155E-12 -0.3741333E+00 -0.9848925E-04 -0.2065531E-14 -0.1788934E-17
  0.1740000E+01  0.3595490E+01  0.1133613E-02 -0.4723518E-07 -0.2259526E-11  0.3093704E-06  0.9277210E-07  0.1946528E-08  0.1314504E-12 -0.3744671E+00 -0.1067652E-03 -0.1276118E-14 -0.2168404E-18
  0.1760000E+01  0.3598539E+01  0.1227531E-02  0.9789471E-08 -0.4433787E-11  0.6741506E-06  0.1755243E-06  0.1837593E-08  0.9237056E-13 -0.3747291E+00 -0.1156163E-03 -0.1009294E-14  0.0000000E+00
  0.1780000E+01  0.3601192E+01  0.1327926E-02  0.2223663E-08 -0.1875833E-11  0.5043792E-06  0.1302906E-06 -0.2943084E-09 -0.2842171E-12 -0.3748700E+00 -0.1250668E-03  0.4989766E-14  0.1734723E-17
  0.1800000E+01  0.3604395E+01  0.1435382E-02  0.1810905E-07 -0.3353762E-11  0.7926590E-06  0.2555312E-06 -0.2061521E-09 -0.1302070E-11 -0.3750971E+00 -0.1351855E-03  0.5427757E-14 -0.2818926E-17
  0.1820000E+01  0.3607387E+01  0.1550123E-02 -0.1279289E-09 -0.1648459E-11  0.5286023E-06  0.1534090E-06 -0.1067407E-08  0.1220357E-11 -0.3753527E+00 -0.1459997E-03 -0.1220025E-14 -0.3361027E-17
  0.1840000E+01  0.3609442E+01  0.1672420E-02  0.8224996E-09  0.2700062E-11  0.3198890E-06  0.1153157E-06 -0.1399831E-08  0.1097789E-11 -0.3755493E+00 -0.1575310E-03  0.2896234E-14  0.6505213E-18
  0.1860000E+01  0.3611620E+01  0.1802921E-02  0.1808819E-07  0.2103206E-10  0.7065033E-06  0.1480080E-06 -0.1490398E-08  0.1595168E-11 -0.3757780E+00 -0.1698421E-03  0.4297638E-14 -0.6505213E-18
  0.1880000E+01  0.3613372E+01  0.1941879E-02  0.2086807E-07  0.7077006E-11  0.2912860E-06  0.1058779E-06 -0.1075913E-08 -0.1136868E-12 -0.3759747E+00 -0.1829550E-03 -0.1322819E-13 -0.9757820E-18
  0.1900000E+01  0.3614878E+01  0.2089874E-02 -0.1703340E-07 -0.1278977E-11  0.3088070E-07  0.9747373E-07 -0.2795500E-09  0.8917311E-12 -0.3761779E+00 -0.1969292E-03 -0.9349246E-14 -0.3361027E-17
  0.1920000E+01  0.3615221E+01  0.2247053E-02 -0.4341322E-07 -0.2955858E-11 -0.4598405E-06 -0.9855739E-07 -0.2565533E-08 -0.1744382E-11 -0.3762518E+00 -0.2117685E-03 -0.9251859E-15  0.3469447E-17
  0.1940000E+01  0.3614688E+01  0.2414034E-02 -0.1278168E-07 -0.4206413E-11 -0.1281769E-06  0.4085450E-08 -0.1046388E-08 -0.1151079E-11 -0.3762040E+00 -0.2275221E-03 -0.3891503E-14 -0.1517883E-17
  0.1960000E+01  0.3614070E+01  0.2591365E-02 -0.2031329E-07  0.1284661E-10 -0.8695512E-07  0.3568675E-07  0.3266756E-09  0.1048051E-11 -0.3761439E+00 -0.2442542E-03 -0.3625218E-14 -0.4336809E-18
  0.1980000E+01  0.3613209E+01  0.2779661E-02 -0.1352299E-08 -0.7958079E-12 -0.6265261E-06 -0.2064735E-06  0.4740396E-09  0.9912071E-12 -0.3761025E+00 -0.2620417E-03 -0.3588600E-14 -0.2818926E-17
  0.2000000E+01  0.3613194E+01  0.2979702E-02  0.4470348E-07 -0.1381295E-10 -0.6146729E-06 -0.2452507E-06 -0.1542503E-08  0.9201528E-12 -0.3761564E+00 -0.2809380E-03  0.3996803E-14  0.7372575E-17
  0.2020000E+01  0.3614692E+01  0.3192403E-02  0.2172702E-07 -0.2586376E-10 -0.1071021E-05 -0.2285260E-06  0.1303909E-08  0.4085621E-12 -0.3763473E+00 -0.3010352E-03  0.4836615E-14  0.1040834E-16
  0.2040000E+01  0.3616332E+01  0.3417976E-02 -0.3463926E-07 -0.4149570E-11 -0.8176465E-06 -0.2343359E-06 -0.2674984E-09  0.3126388E-12 -0.3764495E+00 -0.3223115E-03  0.5224579E-14  0.4336809E-18
  0.2060000E+01  0.3618612E+01  0.3657175E-02  0.2034443E-08  0.2501110E-11 -0.6365545E-06 -0.2070410E-06  0.5227387E-09  0.7460699E-12 -0.3765828E+00 -0.3448658E-03  0.6467319E-15 -0.5637851E-17
  0.2080000E+01  0.3621799E+01  0.3910986E-02 -0.1981299E-07  0.1352873E-10 -0.4629748E-06 -0.1747476E-06  0.1364242E-09 -0.1904255E-11 -0.3768541E+00 -0.3688208E-03 -0.1067522E-14 -0.6071532E-17
  0.2100000E+01  0.3625496E+01  0.4179853E-02 -0.7816458E-08 -0.8014922E-11 -0.4217561E-06 -0.7707877E-07  0.1507163E-08 -0.7176482E-12 -0.3771925E+00 -0.3942068E-03 -0.4017950E-14 -0.2385245E-17
  0.2120000E+01  0.3629035E+01  0.4464181E-02  0.5216725E-08  0.6650680E-11 -0.3980086E-06 -0.8742791E-07 -0.2790261E-08 -0.3041123E-11 -0.3775218E+00 -0.4210560E-03 -0.7750614E-14  0.1517883E-17
  0.2140000E+01  0.3633074E+01  0.4765198E-02 -0.1142393E-07 -0.3001333E-10 -0.4238823E-06 -0.1205863E-06  0.1893789E-08  0.1534772E-11 -0.3779282E+00 -0.4494978E-03 -0.2075183E-14 -0.4987330E-17
  0.2160000E+01  0.3637011E+01  0.5083214E-02 -0.2150450E-07 -0.1659828E-10 -0.9183875E-07 -0.3307287E-07 -0.2944068E-08  0.3765876E-12 -0.3783005E+00 -0.4795372E-03 -0.1027984E-14 -0.4336809E-18
  0.2180000E+01  0.3641478E+01  0.5419483E-02 -0.1548644E-08 -0.2387424E-11 -0.5951065E-06 -0.2181023E-06  0.1001279E-10 -0.2984279E-12 -0.3787833E+00 -0.5113396E-03  0.1018553E-14  0.6505213E-17
  0.2200000E+01  0.3645382E+01  0.5774313E-02  0.3344295E-07  0.2921752E-10  0.4402616E-07  0.1493081E-06  0.4497865E-09 -0.6608047E-12 -0.3791886E+00 -0.5448925E-03 -0.3431598E-14  0.2168404E-17
  0.2220000E+01  0.3648741E+01  0.6148331E-02  0.1153665E-07 -0.6821210E-11 -0.3184116E-06 -0.3044806E-07 -0.2009082E-08  0.1556089E-11 -0.3795273E+00 -0.5802526E-03 -0.5001004E-14  0.4770490E-17
  0.2240000E+01  0.3651687E+01  0.6542540E-02 -0.4261632E-08 -0.3103651E-10 -0.1604868E-06  0.8158531E-07  0.1848223E-08 -0.3836931E-12 -0.3797959E+00 -0.6175075E-03 -0.9119689E-14 -0.9974660E-17
  0.2260000E+01  0.3654821E+01  0.6958252E-02  0.1648359E-08 -0.4661160E-10 -0.3300838E-06 -0.6366645E-07 -0.2598096E-08 -0.2216893E-11 -0.3800749E+00 -0.6567947E-03 -0.2161496E-14  0.4336809E-17
  0.2280000E+01  0.3657995E+01  0.7396217E-02  0.1562416E-07  0.1648459E-10  0.1119221E-06  0.7659037E-07  0.3191209E-11 -0.1563194E-12 -0.3803757E+00 -0.6982029E-03  0.5648503E-14 -0.2168404E-17
  0.2300000E+01  0.3660689E+01  0.7857130E-02  0.4960305E-08 -0.1216449E-10 -0.2081304E-06  0.6936716E-07  0.1708268E-09 -0.2515321E-11 -0.3806682E+00 -0.7418208E-03 -0.1100569E-13 -0.4336809E-18
  0.2320000E+01  0.3662977E+01  0.8341945E-02  0.9283118E-08  0.7742074E-10  0.2167734E-07  0.2281377E-07  0.5770587E-09 -0.7958079E-11 -0.3809180E+00 -0.7877038E-03  0.0000000E+00 -0.8673617E-18
  0.2340000E+01  0.3665070E+01  0.8851690E-02  0.3631760E-08 -0.3547029E-10 -0.8190863E-06 -0.1769331E-06 -0.1691505E-08  0.4945377E-11 -0.3811274E+00 -0.8359279E-03 -0.3795634E-15  0.2341877E-16
  0.2360000E+01  0.3666523E+01  0.9387201E-02 -0.1188818E-07  0.4479261E-10 -0.4317233E-06 -0.1138396E-06  0.3206354E-09  0.1293188E-11 -0.3812030E+00 -0.8865235E-03 -0.3575295E-14  0.6938894E-17
  0.2380000E+01  0.3668009E+01  0.9949925E-02 -0.2210913E-07 -0.4547474E-12 -0.3161801E-06  0.4059984E-08 -0.5563967E-09 -0.5684342E-12 -0.3812653E+00 -0.9396770E-03 -0.6717316E-14 -0.7806256E-17
  0.2400000E+01  0.3669701E+01  0.1054131E-01 -0.8537123E-08 -0.5047696E-10 -0.2592181E-06 -0.2293746E-07  0.1048950E-08  0.3367973E-11 -0.3814013E+00 -0.9955988E-03 -0.4810966E-14  0.6071532E-17
  0.2420000E+01  0.3671388E+01  0.1116247E-01 -0.2982541E-08  0.1114131E-10 -0.1647132E-06 -0.1723056E-06  0.3090779E-08  0.1197975E-10 -0.3815581E+00 -0.1054368E-02 -0.2752619E-14  0.1301043E-16
  0.2440000E+01  0.3672554E+01  0.1181357E-01  0.1488589E-07  0.5957190E-10 -0.5618471E-06 -0.2283450E-06  0.7753069E-09  0.1124079E-10 -0.3816633E+00 -0.1115968E-02  0.4004083E-14  0.1387779E-16
  0.2460000E+01  0.3673683E+01  0.1249667E-01 -0.1429164E-07  0.5388756E-10 -0.8707487E-07 -0.3720925E-07  0.9997048E-09 -0.2458478E-11 -0.3818040E+00 -0.1180663E-02 -0.2166289E-14  0.1734723E-17
  0.2480000E+01  0.3674714E+01  0.1321294E-01  0.3849216E-08  0.6707523E-10 -0.5933426E-07  0.1563603E-07  0.3902026E-09  0.1314504E-10 -0.3819336E+00 -0.1248506E-02  0.1432546E-14 -0.6938894E-17
  0.2500000E+01  0.3675416E+01  0.1396322E-01 -0.1769513E-08 -0.6230039E-10 -0.7301569E-07  0.1073567E-06  0.6868504E-09  0.5144329E-11 -0.3820276E+00 -0.1319573E-02 -0.7105427E-15  0.8673617E-18
  0.2520000E+01  0.3677979E+01  0.1475225E-01  0.1760089E-07  0.2048637E-09 -0.2069606E-07  0.1140143E-06  0.5428095E-09 -0.9436008E-11 -0.3823422E+00 -0.1394391E-02  0.2290936E-14  0.7806256E-17
  0.2540000E+01  0.3680778E+01  0.1557913E-01 -0.6416593E-08  0.7298695E-10  0.3886622E-07  0.1955959E-06  0.1489566E-08  0.4973799E-11 -0.3826558E+00 -0.1472770E-02 -0.6993531E-15 -0.1734723E-17
  0.2560000E+01  0.3683770E+01  0.1644568E-01  0.1787157E-07 -0.6366463E-10  0.1775334E-06  0.2618544E-06 -0.2657430E-08  0.1929834E-10 -0.3829718E+00 -0.1554904E-02  0.6938894E-15  0.1214306E-16
  0.2580000E+01  0.3686760E+01  0.1735256E-01  0.9475666E-09  0.2432898E-10  0.8663466E-08  0.1413573E-06  0.1785148E-08 -0.5655920E-11 -0.3832579E+00 -0.1640822E-02  0.3614680E-14 -0.1734723E-17
  0.2600000E+01  0.3690179E+01  0.1830250E-01 -0.3268584E-08 -0.1548415E-09 -0.4061999E-06 -0.1025182E-06 -0.4953248E-09 -0.1057288E-10 -0.3835814E+00 -0.1730822E-02 -0.1195625E-14  0.3556183E-16
  0.2620000E+01  0.3694053E+01  0.1929734E-01  0.1795107E-07  0.3637979E-11 -0.3504901E-06 -0.1581066E-06  0.1896748E-08  0.9464429E-11 -0.3839431E+00 -0.1825085E-02  0.1694997E-15 -0.1474515E-16
  0.2640000E+01  0.3698088E+01  0.2033803E-01  0.1393456E-07  0.7275958E-11 -0.6081818E-06 -0.2986053E-06  0.6145979E-09 -0.5314860E-11 -0.3843566E+00 -0.1923775E-02  0.3364312E-14 -0.3469447E-16
  0.2660000E+01  0.3701937E+01  0.2142565E-01 -0.2083221E-07  0.1487024E-09 -0.6246163E-06 -0.3982350E-06  0.3205798E-08 -0.9464429E-11 -0.3847546E+00 -0.2026952E-02  0.2838164E-14 -0.1734723E-16
  0.2680000E+01  0.3705934E+01  0.2256277E-01  0.3779154E-08 -0.1359695E-09 -0.8340202E-06 -0.6455230E-06 -0.9230693E-10  0.5428547E-11 -0.3851633E+00 -0.2134833E-02  0.4142623E-14  0.0000000E+00
  0.2700000E+01  0.3709948E+01  0.2375068E-01 -0.3708043E-08  0.1932676E-09 -0.6070843E-07 -0.1312510E-06 -0.9970757E-10  0.4661160E-11 -0.3855587E+00 -0.2247505E-02  0.1052656E-13  0.2775558E-16
  0.2720000E+01  0.3713624E+01  0.2499051E-01 -0.1797589E-07 -0.1568878E-09 -0.7745043E-06 -0.5983966E-06  0.8907698E-09 -0.1912781E-10 -0.3858535E+00 -0.2364943E-02 -0.2938826E-14 -0.2775558E-16
  0.2740000E+01  0.3717516E+01  0.2628555E-01  0.8497469E-08 -0.5547918E-10 -0.3834058E-06 -0.3181194E-06  0.5523355E-09  0.6764367E-11 -0.3861578E+00 -0.2487586E-02 -0.5024367E-14 -0.1214306E-16
  0.2760000E+01  0.3721684E+01  0.2763788E-01 -0.1602820E-07 -0.1818989E-10 -0.9043277E-06 -0.5853508E-06  0.1094030E-08  0.7730705E-11 -0.3864961E+00 -0.2615683E-02  0.3539842E-14 -0.4857226E-16
  0.2780000E+01  0.3726195E+01  0.2905001E-01 -0.2721941E-07 -0.1869012E-09 -0.8542707E-06 -0.4988397E-06  0.2041456E-08 -0.7446488E-11 -0.3869151E+00 -0.2749599E-02  0.3354631E-14  0.5724587E-16
  0.2800000E+01  0.3730721E+01  0.3052296E-01 -0.8315380E-10 -0.6821210E-11 -0.1053060E-05 -0.5620896E-06  0.1138168E-08  0.5400125E-11 -0.3873356E+00 -0.2889305E-02  0.5075305E-14  0.3122502E-16
  0.2820000E+01  0.3734859E+01  0.3205769E-01  0.1048563E-07  0.1296030E-09 -0.8104488E-06 -0.3634050E-06  0.1496474E-09  0.1000444E-10 -0.3877163E+00 -0.3034868E-02 -0.1417306E-14 -0.3469447E-16
  0.2840000E+01  0.3739260E+01  0.3365849E-01  0.9018088E-09  0.2132765E-09 -0.5817487E-06 -0.4874018E-06 -0.4183676E-08  0.6082246E-11 -0.3881493E+00 -0.3186826E-02 -0.4378345E-14 -0.3469447E-16
  0.2860000E+01  0.3743799E+01  0.3532718E-01  0.1424663E-07 -0.4865797E-10 -0.4630562E-06 -0.1820881E-06  0.2493160E-09 -0.8640200E-11 -0.3885963E+00 -0.3345253E-02 -0.1552760E-14 -0.5204170E-16
  0.2880000E+01  0.3747847E+01  0.3706364E-01 -0.2886130E-07  0.3956302E-09 -0.6441647E-06 -0.2778397E-06 -0.1399611E-08  0.4393996E-10 -0.3889765E+00 -0.3510065E-02  0.6167905E-15  0.5898060E-16
  0.2900000E+01  0.3752234E+01  0.3887349E-01  0.6744060E-08 -0.1418812E-09 -0.5555821E-06 -0.3173482E-06  0.1327235E-08 -0.2410161E-10 -0.3894432E+00 -0.3682087E-02  0.9188052E-15 -0.1509209E-15
  0.2920000E+01  0.3756378E+01  0.4075688E-01  0.5820766E-08 -0.8094503E-10 -0.5039348E-06 -0.2102170E-06 -0.3867221E-08 -0.5343281E-11 -0.3898816E+00 -0.3861116E-02  0.9125121E-15 -0.5204170E-16
  0.2940000E+01  0.3760049E+01  0.4271509E-01  0.4355675E-08  0.8367351E-10 -0.1258236E-05 -0.9038049E-06 -0.9231061E-09  0.4422418E-10 -0.3902618E+00 -0.4047235E-02 -0.2718914E-14 -0.6938894E-17
  0.2960000E+01  0.3763269E+01  0.4475040E-01  0.2729467E-07 -0.1646185E-09 -0.1086123E-05 -0.8598290E-06 -0.2930048E-08  0.1961098E-10 -0.3905878E+00 -0.4240671E-02  0.1500301E-14 -0.2081668E-16
  0.2980000E+01  0.3766271E+01  0.4686635E-01  0.7734978E-08  0.1273293E-10 -0.7525587E-06 -0.4350732E-06  0.1291605E-08  0.2023626E-10 -0.3908730E+00 -0.4441716E-02  0.4470697E-14 -0.3816392E-16
  0.3000000E+01  0.3769285E+01  0.4906615E-01  0.2832773E-07 -0.3019522E-09 -0.7959704E-06 -0.6871705E-06 -0.8852415E-09 -0.2285105E-10 -0.3911570E+00 -0.4650739E-02  0.1480297E-14 -0.3122502E-16
  0.3020000E+01  0.3772309E+01  0.5135281E-01 -0.3276590E-07 -0.7112249E-09 -0.9251549E-06 -0.7691706E-06  0.7950550E-09 -0.2950173E-10 -0.3914407E+00 -0.4868047E-02 -0.2058692E-14  0.1734723E-16