VARIABLES="w (rad/s)"
"abs(F   1   1)" "angle(F   1   1)"
"abs(F   1   2)" "angle(F   1   2)"
"abs(F   1   3)" "angle(F   1   3)"
"abs(F   1   4)" "angle(F   1   4)"
"abs(F   1   5)" "angle(F   1   5)"
"abs(F   1   6)" "angle(F   1   6)"
Zone t="Diffraction force - beta =   0.000 deg",I=    21,F=POINT
  0.3000000E+01  0.1211550E+02 -0.1548168E+01  0.1546081E-04 -0.2433841E-01  0.1294806E+03 -0.3085930E+01  0.4372875E-04  0.3079875E+01  0.4974846E+02  0.1579286E+01  0.6667848E-13  0.2412738E+01
  0.3100000E+01  0.1139269E+02 -0.1542496E+01  0.7394483E-05  0.2772827E+01  0.1344579E+03 -0.3097176E+01  0.7039186E-05 -0.2869399E+01  0.5364878E+02  0.1580604E+01  0.1550730E-12  0.1726815E+00
  0.3200000E+01  0.1052404E+02 -0.1534689E+01  0.3542845E-04 -0.4755872E-01  0.1421090E+03 -0.3117130E+01  0.3775378E-04 -0.3054453E+01  0.5825051E+02  0.1582172E+01  0.2960766E-12 -0.9011670E-01
  0.3300000E+01  0.9544991E+01 -0.1524240E+01  0.3500298E-04 -0.3060285E+01  0.1486433E+03 -0.3135784E+01  0.2598357E-04  0.5594386E-01  0.6302150E+02  0.1583883E+01  0.3162115E-12  0.1123548E-01
  0.3400000E+01  0.8951787E+01 -0.1512382E+01  0.6292858E-05  0.2175424E+01  0.1546959E+03  0.3128229E+01  0.4455454E-05 -0.2212625E+01  0.6831573E+02  0.1585857E+01  0.1561982E-12  0.2841421E+01
  0.3500000E+01  0.8725539E+01 -0.1501375E+01  0.1596038E-04 -0.2246747E-01  0.1598877E+03  0.3109439E+01  0.7699709E-05  0.2506607E+01  0.7315260E+02  0.1587688E+01  0.8600209E-13 -0.2239086E+01
  0.3600000E+01  0.7296608E+01 -0.1478516E+01  0.6462418E-05 -0.2960901E+01  0.1659258E+03  0.3086735E+01  0.1455095E-04 -0.2681609E+01  0.7810465E+02  0.1589367E+01  0.2128369E-12 -0.2558220E+01
  0.3700000E+01  0.6084873E+01 -0.1446252E+01  0.2260827E-04 -0.4108796E+00  0.1725587E+03  0.3060863E+01  0.3080312E-04 -0.7723567E-01  0.8380635E+02  0.1591630E+01  0.1909894E-12 -0.8117079E+00
  0.3800000E+01  0.3638133E+01 -0.1339652E+01  0.3366578E-04  0.3025253E+01  0.1791817E+03  0.3033290E+01  0.3502058E-05 -0.1276526E-01  0.9019706E+02  0.1594276E+01  0.4050717E-13  0.2875341E+01
  0.3900000E+01  0.1300194E+01 -0.8095414E+00  0.3616956E-04  0.3096904E+01  0.1846579E+03  0.3006603E+01  0.2748885E-04  0.2884255E+01  0.9607170E+02  0.1596780E+01  0.2457800E-12 -0.3069255E+01
  0.4000000E+01  0.1408979E+01  0.8368596E+00  0.2620185E-04 -0.3101132E+01  0.1898463E+03  0.2979004E+01  0.1269005E-04 -0.1554356E+01  0.1013919E+03  0.1598581E+01  0.6998034E-13 -0.2723368E+01
  0.4100000E+01  0.3366454E+01  0.1271940E+01  0.1419127E-04 -0.1932899E+00  0.1940105E+03  0.2952012E+01  0.7757801E-05  0.2542669E+01  0.1062657E+03  0.1599816E+01  0.2357942E-12 -0.1056656E+00
  0.4200000E+01  0.5989956E+01  0.1397862E+01  0.1007383E-04  0.1900162E+00  0.2008471E+03  0.2916620E+01  0.1935574E-04  0.5468713E-01  0.1137400E+03  0.1602313E+01  0.1245478E-12 -0.5708078E-01
  0.4300000E+01  0.8495595E+01  0.1441840E+01  0.1219920E-04  0.3021215E+01  0.2072259E+03  0.2881263E+01  0.2546311E-05 -0.1855527E+01  0.1212280E+03  0.1605569E+01  0.7149698E-13 -0.1107149E+01
  0.4400000E+01  0.1167485E+02  0.1478382E+01  0.5735938E-05  0.2767961E+01  0.2134144E+03  0.2844506E+01  0.1026395E-04  0.1324409E+01  0.1276650E+03  0.1607496E+01  0.1811884E-12 -0.3141592E+01
  0.4500000E+01  0.1472973E+02  0.1493896E+01  0.1503177E-04 -0.2991591E+01  0.2181544E+03  0.2809697E+01  0.2137661E-04 -0.1500333E+01  0.1334161E+03  0.1608711E+01  0.3630032E-12  0.3082837E+01
  0.4600000E+01  0.1756856E+02  0.1506508E+01  0.5493839E-05 -0.2976751E+01  0.2231191E+03  0.2772334E+01  0.1830519E-04 -0.4071899E+00  0.1389525E+03  0.1609491E+01  0.6372146E-12 -0.1623989E+00
  0.4700000E+01  0.2057578E+02  0.1519989E+01  0.2059414E-04  0.3128885E+01  0.2272292E+03  0.2735641E+01  0.1360335E-04  0.2898208E+01  0.1454926E+03  0.1611103E+01  0.2528424E-12  0.2797624E+01
  0.4800000E+01  0.2619858E+02  0.1535390E+01  0.7801071E-05 -0.2891141E+01  0.2341962E+03  0.2690529E+01  0.2978584E-04  0.3098055E+01  0.1543586E+03  0.1612937E+01  0.2758563E-12  0.3012445E+01
  0.4900000E+01  0.3143617E+02  0.1544827E+01  0.5584987E-04  0.2109603E-01  0.2396210E+03  0.2647655E+01  0.3531701E-05 -0.4032297E+00  0.1605189E+03  0.1613470E+01  0.3842848E-13  0.5880026E+00
  0.5000000E+01  0.3712585E+02  0.1555039E+01  0.6059252E-04  0.3124300E+01  0.2460015E+03  0.2601930E+01  0.5352572E-05  0.6022874E+00  0.1656624E+03  0.1612563E+01  0.3168495E-12 -0.2834026E+01
