VARIABLES="w (rad/s)"
"abs(F   1   1)" "angle(F   1   1)"
"abs(F   1   2)" "angle(F   1   2)"
"abs(F   1   3)" "angle(F   1   3)"
"abs(F   1   4)" "angle(F   1   4)"
"abs(F   1   5)" "angle(F   1   5)"
"abs(F   1   6)" "angle(F   1   6)"
Zone t="Diffraction force - beta =   0.000 deg",I=    21,F=POINT
  0.3000000E+01  0.3397541E+02 -0.1562728E+01  0.7203314E-05 -0.4099737E-01  0.2698303E+02 -0.2702412E+00  0.4221309E-04  0.3105226E+01  0.5253325E+02  0.1578836E+01  0.4621295E-12  0.3106991E+01
  0.3100000E+01  0.3462513E+02 -0.1561486E+01  0.5375991E-05  0.5020847E+00  0.2046329E+02 -0.2960576E+00  0.2553430E-04 -0.3053944E+01  0.5661350E+02  0.1580091E+01  0.1418085E-12  0.2145929E+00
  0.3200000E+01  0.3515904E+02 -0.1559990E+01  0.2837396E-04 -0.5860641E-01  0.1098008E+02 -0.3221217E+00  0.6317803E-05 -0.1804048E+01  0.6139965E+02  0.1581587E+01  0.7425193E-12  0.2392344E-02
  0.3300000E+01  0.3561092E+02 -0.1558322E+01  0.2642607E-04 -0.3037775E+01  0.2543628E+01 -0.3463200E+00  0.2017952E-05  0.2952164E+01  0.6635944E+02  0.1583224E+01  0.3197047E-12 -0.2584550E+00
  0.3400000E+01  0.3647546E+02 -0.1556468E+01  0.3627555E-04  0.1363637E+00  0.5527592E+01  0.2758298E+01  0.2177502E-04 -0.3034978E+01  0.7184672E+02  0.1585116E+01  0.7922871E-12  0.2929247E+01
  0.3500000E+01  0.3773281E+02 -0.1554755E+01  0.7196765E-04 -0.6599881E-02  0.1282954E+02  0.2729371E+01  0.3887768E-04  0.1000119E+00  0.7688068E+02  0.1586870E+01  0.4141008E-12 -0.2977854E+01
  0.3600000E+01  0.3780834E+02 -0.1553011E+01  0.1490362E-04 -0.3046277E+01  0.2120844E+02  0.2698242E+01  0.6599963E-04 -0.1000730E+00  0.8203365E+02  0.1588477E+01  0.6740803E-13  0.2819841E+01
  0.3700000E+01  0.3811903E+02 -0.1550965E+01  0.5378249E-04 -0.1668027E+00  0.3040735E+02  0.2666260E+01  0.4692080E-04 -0.3382884E-01  0.8793993E+02  0.1590651E+01  0.4078199E-12 -0.2822598E+01
  0.3800000E+01  0.3718366E+02 -0.1548380E+01  0.1534554E-04  0.2897320E+01  0.3978638E+02  0.2633171E+01  0.8706933E-04 -0.3135089E+01  0.9453859E+02  0.1593198E+01  0.2593481E-12 -0.4899012E-07
  0.3900000E+01  0.3616507E+02 -0.1545994E+01  0.4905002E-04  0.3109537E+01  0.4811927E+02  0.2598890E+01  0.1666518E-03  0.3223970E-01  0.1006244E+03  0.1595604E+01  0.3091065E-12 -0.3130099E+01
  0.4000000E+01  0.3577759E+02 -0.1544415E+01  0.3707541E-04 -0.3112877E+01  0.5631769E+02  0.2564400E+01  0.3908699E-04 -0.2809776E+01  0.1061590E+03  0.1597333E+01  0.1139087E-12 -0.3079174E+01
  0.4100000E+01  0.3522424E+02 -0.1542653E+01  0.1331820E-04 -0.2039236E+00  0.6359386E+02  0.2529099E+01  0.1630404E-04  0.3386590E+00  0.1112500E+03  0.1598515E+01  0.4213824E-12 -0.1013465E+00
  0.4200000E+01  0.3417446E+02 -0.1540631E+01  0.3870037E-04  0.4817260E-01  0.7404229E+02  0.2491668E+01  0.2791337E-05  0.7022564E+00  0.1189437E+03  0.1600934E+01  0.2316087E-12  0.2291069E+01
  0.4300000E+01  0.3329858E+02 -0.1537980E+01  0.1063822E-03  0.3125361E+01  0.8415127E+02  0.2455064E+01  0.2769958E-04 -0.1348978E+00  0.1266533E+03  0.1604079E+01  0.2674228E-12 -0.2803037E+01
  0.4400000E+01  0.3175770E+02 -0.1536864E+01  0.3279867E-04  0.3077062E+01  0.9427557E+02  0.2417209E+01  0.1735020E-03  0.5791864E-01  0.1333143E+03  0.1605940E+01  0.4421666E-12  0.1532601E+00
  0.4500000E+01  0.3036897E+02 -0.1533525E+01  0.1250972E-04 -0.1541206E+00  0.1029689E+03  0.2379647E+01  0.5104984E-04 -0.2759623E+01  0.1392911E+03  0.1607111E+01  0.8316695E-13 -0.2792821E+01
  0.4600000E+01  0.2920249E+02 -0.1532136E+01  0.3866527E-04 -0.3122563E+01  0.1121461E+03  0.2340564E+01  0.7547403E-05 -0.2087004E+01  0.1450548E+03  0.1607863E+01  0.6435218E-12 -0.4759926E+00
  0.4700000E+01  0.2786975E+02 -0.1533293E+01  0.2295743E-04 -0.3136278E+01  0.1205267E+03  0.2301818E+01  0.1717951E-04  0.2774294E+01  0.1518234E+03  0.1609422E+01  0.4192202E-12 -0.3232794E-06
  0.4800000E+01  0.2392751E+02 -0.1532027E+01  0.2132913E-04 -0.7534880E-01  0.1323471E+03  0.2260567E+01  0.4239745E-04  0.3101867E+01  0.1609186E+03  0.1611218E+01  0.1334990E-12  0.2010639E+01
  0.4900000E+01  0.2037893E+02 -0.1530730E+01  0.7042209E-04  0.1374107E-01  0.1425925E+03  0.2219778E+01  0.6506657E-04 -0.3412972E-01  0.1673091E+03  0.1611737E+01  0.4143139E-13  0.2601174E+01
  0.5000000E+01  0.1637639E+02 -0.1535067E+01  0.8079009E-04  0.3132359E+01  0.1540197E+03  0.2178922E+01  0.3686452E-04  0.8965351E-01  0.1726836E+03  0.1610864E+01  0.1059877E-12 -0.2904745E+01
