VARIABLES="w (rad/s)"
"abs(F   1   1)" "angle(F   1   1)"
"abs(F   1   2)" "angle(F   1   2)"
"abs(F   1   3)" "angle(F   1   3)"
"abs(F   1   4)" "angle(F   1   4)"
"abs(F   1   5)" "angle(F   1   5)"
"abs(F   1   6)" "angle(F   1   6)"
Zone t="FKforce - beta =   0.000",I=    21,F=POINT
  0.3000000E+01  0.2186191E+02 -0.1570796E+01  0.8259366E-05  0.3131783E+01  0.1552838E+03  0.2456597E-07  0.1866396E-05 -0.6722472E+00  0.2784886E+01  0.1570807E+01  0.4130937E-12 -0.3072736E+01
  0.3100000E+01  0.2323550E+02 -0.1570796E+01  0.1161013E-04 -0.6738226E-02  0.1538983E+03 -0.6196783E-08  0.1865940E-04 -0.3123224E+01  0.2964852E+01  0.1570817E+01  0.1464821E-13  0.2896614E+01
  0.3200000E+01  0.2463981E+02 -0.1570796E+01  0.7063186E-05  0.3138428E+01  0.1524818E+03 -0.4034054E-06  0.3626326E-04 -0.7897800E-01  0.3149333E+01  0.1570766E+01  0.4485433E-12  0.6340695E-01
  0.3300000E+01  0.2607350E+02 -0.1570796E+01  0.8604190E-05  0.1212324E-01  0.1510334E+03  0.1326009E-06  0.2794538E-04 -0.3103191E+01  0.3338208E+01  0.1570773E+01  0.8556068E-13 -0.1653938E+01
  0.3400000E+01  0.2753519E+02 -0.1570796E+01  0.3951678E-04 -0.6221932E-02  0.1495556E+03 -0.3762264E-06  0.1902530E-04  0.3075754E+01  0.3531379E+01  0.1570770E+01  0.6368382E-12  0.2950762E+01
  0.3500000E+01  0.2902343E+02 -0.1570796E+01  0.5600986E-04 -0.2078481E-02  0.1480502E+03 -0.3864937E-07  0.4488753E-04 -0.1527106E-01  0.3728579E+01  0.1570812E+01  0.3552714E-12  0.3141593E+01
  0.3600000E+01  0.3053680E+02 -0.1570796E+01  0.8482656E-05 -0.3111286E+01  0.1465182E+03  0.1562139E-06  0.7870805E-04 -0.1703898E-02  0.3929637E+01  0.1570792E+01  0.1792273E-12  0.8836721E+00
  0.3700000E+01  0.3207379E+02 -0.1570796E+01  0.3230960E-04  0.3113100E-02  0.1449603E+03 -0.1644716E-06  0.1620192E-04  0.4876426E-01  0.4134439E+01  0.1570803E+01  0.5188057E-12  0.3121047E+01
  0.3800000E+01  0.3363294E+02 -0.1570797E+01  0.1854926E-04 -0.1059410E-01  0.1433779E+03  0.3990885E-07  0.9057076E-04 -0.3135834E+01  0.4342675E+01  0.1570803E+01  0.2986182E-12 -0.3569911E-01
  0.3900000E+01  0.3521264E+02 -0.1570797E+01  0.1289144E-04 -0.3138197E+01  0.1417727E+03  0.1748964E-06  0.1931557E-03 -0.8408998E-02  0.4554200E+01  0.1570789E+01  0.6550880E-13  0.2922924E+01
  0.4000000E+01  0.3681137E+02 -0.1570796E+01  0.1087971E-04 -0.3141165E+01  0.1401484E+03  0.1020712E-06  0.3716352E-04 -0.3140390E+01  0.4768875E+01  0.1570800E+01  0.5411332E-13  0.2736701E+01
  0.4100000E+01  0.3842752E+02 -0.1570796E+01  0.8852274E-06  0.3108973E+01  0.1385009E+03  0.9639967E-07  0.2181045E-04  0.4784308E-01  0.4986269E+01  0.1570792E+01  0.1855932E-12 -0.9585915E-01
  0.4200000E+01  0.4005952E+02 -0.1570796E+01  0.2876299E-04 -0.1359927E-02  0.1368386E+03  0.4599761E-06  0.1721207E-04  0.3098292E+01  0.5206165E+01  0.1570808E+01  0.3310893E-12  0.2562518E+01
  0.4300000E+01  0.4170570E+02 -0.1570796E+01  0.9425766E-04  0.3138816E+01  0.1351566E+03  0.3386914E-06  0.2819233E-04 -0.4547128E-01  0.5428414E+01  0.1570790E+01  0.2853030E-12 -0.3054315E+01
  0.4400000E+01  0.4336445E+02 -0.1570796E+01  0.2739021E-04  0.3140810E+01  0.1334617E+03 -0.3930122E-06  0.1707077E-03  0.5237430E-03  0.5652905E+01  0.1570797E+01  0.6218467E-12  0.1087645E+00
  0.4500000E+01  0.4503408E+02 -0.1570796E+01  0.2722637E-04  0.1197261E-01  0.1317515E+03 -0.6514590E-07  0.4892965E-04  0.3094676E+01  0.5879000E+01  0.1570796E+01  0.2885363E-12 -0.1732457E+00
  0.4600000E+01  0.4671294E+02 -0.1570796E+01  0.3323932E-04  0.3136605E+01  0.1300296E+03 -0.4767286E-06  0.2054524E-04  0.3108223E+01  0.6106675E+01  0.1570802E+01  0.2000906E-12 -0.1858852E+01
  0.4700000E+01  0.4839938E+02 -0.1570796E+01  0.2395557E-05 -0.2980726E+01  0.1282943E+03 -0.8920185E-07  0.4046317E-05  0.2345778E+01  0.6335714E+01  0.1570799E+01  0.6627597E-12 -0.1290092E+00
  0.4800000E+01  0.5009169E+02 -0.1570796E+01  0.2882816E-04  0.1137196E-01  0.1265524E+03  0.4521483E-06  0.1261233E-04  0.3110869E+01  0.6565568E+01  0.1570794E+01  0.2328857E-12  0.3748407E+00
  0.4900000E+01  0.5178815E+02 -0.1570796E+01  0.1457951E-04 -0.1443712E-01  0.1248004E+03 -0.1001049E-05  0.6178585E-04 -0.1350617E-01  0.6796082E+01  0.1570797E+01  0.6750156E-13  0.3141593E+01
  0.5000000E+01  0.5348718E+02 -0.1570796E+01  0.2020543E-04 -0.3126658E+01  0.1230442E+03  0.4495387E-06  0.3230683E-04  0.8302392E-02  0.7027089E+01  0.1570796E+01  0.2112595E-12  0.3430239E+00
