 VARIABLES="Time (s)"
"AddedMass    1" "IRF    1"
"AddedMass    2" "IRF    2"
"AddedMass    3" "IRF    3"
"AddedMass    4" "IRF    4"
"AddedMass    5" "IRF    5"
"AddedMass    6" "IRF    6"
Zone t="DoF    1",I=   100,F=POINT
  0.0000000E+00  0.3483618E+01  0.9447136E+00  0.4970981E-08  0.9639256E-09 -0.1461676E-03 -0.2877429E-03  0.2953494E-07 -0.3406569E-07 -0.6523988E+01 -0.4226642E+01 -0.2634901E-14  0.6922121E-15
  0.1000000E+00  0.3483618E+01  0.8582982E+00  0.4970981E-08  0.8907389E-09 -0.1461676E-03 -0.2596440E-03  0.2953494E-07 -0.2995806E-07 -0.6523988E+01 -0.3803334E+01 -0.2634901E-14  0.6149286E-15
  0.2000000E+00  0.3483618E+01  0.6156082E+00  0.4970981E-08  0.6823208E-09 -0.1461676E-03 -0.1810952E-03  0.2953494E-07 -0.1860069E-07 -0.6523988E+01 -0.2620895E+01 -0.2634901E-14  0.4011398E-15
  0.3000000E+00  0.3483618E+01  0.2630222E+00  0.4970981E-08  0.3704388E-09 -0.1461676E-03 -0.6812767E-04  0.2953494E-07 -0.2665694E-08 -0.6523988E+01 -0.9232547E+00 -0.2634901E-14  0.1007224E-15
  0.4000000E+00  0.3483618E+01 -0.1324562E+00  0.4970981E-08  0.2751392E-11 -0.1461676E-03  0.5631841E-04  0.2953494E-07  0.1408964E-07 -0.6523988E+01  0.9407676E+00 -0.2634901E-14 -0.2165202E-15
  0.5000000E+00  0.3483618E+01 -0.4964246E+00  0.4970981E-08 -0.3643484E-09 -0.1461676E-03  0.1672067E-03  0.2953494E-07  0.2769725E-07 -0.6523988E+01  0.2590963E+01 -0.2634901E-14 -0.4774710E-15
  0.6000000E+00  0.3483618E+01 -0.7616482E+00  0.4970981E-08 -0.6742898E-09 -0.1461676E-03  0.2426243E-03  0.2953494E-07  0.3490336E-07 -0.6523988E+01  0.3695374E+01 -0.2634901E-14 -0.6230464E-15
  0.7000000E+00  0.3483618E+01 -0.8810214E+00  0.4970981E-08 -0.8790417E-09 -0.1461676E-03  0.2682944E-03  0.2953494E-07  0.3392982E-07 -0.6523988E+01  0.4039054E+01 -0.2634901E-14 -0.6221130E-15
  0.8000000E+00  0.3483618E+01 -0.8363414E+00  0.4970981E-08 -0.9466732E-09 -0.1461676E-03  0.2404278E-03  0.2953494E-07  0.2489526E-07 -0.6523988E+01  0.3567373E+01 -0.2634901E-14 -0.4786433E-15
  0.9000000E+00  0.3483618E+01 -0.6411936E+00  0.4970981E-08 -0.8665737E-09 -0.1461676E-03  0.1663221E-03  0.2953494E-07  0.9798198E-08 -0.6523988E+01  0.2394897E+01 -0.2634901E-14 -0.2304041E-15
  0.1000000E+01  0.3483618E+01 -0.3374772E+00  0.4970981E-08 -0.6514373E-09 -0.1461676E-03  0.6261012E-04  0.2953494E-07 -0.7934793E-08 -0.6523988E+01  0.7784076E+00 -0.2634901E-14  0.6047641E-16
  0.1100000E+01  0.3483618E+01  0.1359517E-01  0.4970981E-08 -0.3355892E-09 -0.1461676E-03 -0.4843879E-04  0.2953494E-07 -0.2423227E-07 -0.6523988E+01 -0.9397114E+00 -0.2634901E-14  0.3227651E-15
  0.1200000E+01  0.3483618E+01  0.3440802E+00  0.4970981E-08  0.3021454E-10 -0.1461676E-03 -0.1437415E-03  0.2953494E-07 -0.3531242E-07 -0.6523988E+01 -0.2405098E+01 -0.2634901E-14  0.4934954E-15
  0.1300000E+01  0.3483618E+01  0.5928375E+00  0.4970981E-08  0.3868025E-09 -0.1461676E-03 -0.2042967E-03  0.2953494E-07 -0.3855425E-07 -0.6523988E+01 -0.3326049E+01 -0.2634901E-14  0.5332381E-15
  0.1400000E+01  0.3483618E+01  0.7172508E+00  0.4970981E-08  0.6761939E-09 -0.1461676E-03 -0.2191018E-03  0.2953494E-07 -0.3310516E-07 -0.6523988E+01 -0.3533147E+01 -0.2634901E-14  0.4355620E-15
  0.1500000E+01  0.3483618E+01  0.7008246E+00  0.4970981E-08  0.8512551E-09 -0.1461676E-03 -0.1872637E-03  0.2953494E-07 -0.2008537E-07 -0.6523988E+01 -0.3011445E+01 -0.2634901E-14  0.2283845E-15
  0.1600000E+01  0.3483618E+01  0.5552530E+00  0.4970981E-08  0.8837526E-09 -0.1461676E-03 -0.1178855E-03  0.2953494E-07 -0.2342414E-08 -0.6523988E+01 -0.1898911E+01 -0.2634901E-14 -0.3311951E-16
  0.1700000E+01  0.3483618E+01  0.3167415E+00  0.4970981E-08  0.7693729E-09 -0.1461676E-03 -0.2779794E-04  0.2953494E-07  0.1618834E-07 -0.6523988E+01 -0.4522979E+00 -0.2634901E-14 -0.2803324E-15
  0.1800000E+01  0.3483618E+01  0.3755433E-01  0.4970981E-08  0.5287270E-09 -0.1461676E-03  0.6232811E-04  0.2953494E-07  0.3137104E-07 -0.6523988E+01  0.1011369E+01 -0.2634901E-14 -0.4483624E-15
  0.1900000E+01  0.3483618E+01 -0.2252919E+00  0.4970981E-08  0.2040271E-09 -0.1461676E-03  0.1326070E-03  0.2953494E-07  0.3980200E-07 -0.6523988E+01  0.2184414E+01 -0.2634901E-14 -0.4923690E-15
  0.2000000E+01  0.3483618E+01 -0.4217447E+00  0.4970981E-08 -0.1480884E-09 -0.1461676E-03  0.1682769E-03  0.2953494E-07  0.3957637E-07 -0.6523988E+01  0.2833872E+01 -0.2634901E-14 -0.3990263E-15
  0.2100000E+01  0.3483618E+01 -0.5184086E+00  0.4970981E-08 -0.4664071E-09 -0.1461676E-03  0.1628072E-03  0.2953494E-07  0.3071485E-07 -0.6523988E+01  0.2848532E+01 -0.2634901E-14 -0.1902622E-15
  0.2200000E+01  0.3483618E+01 -0.5043097E+00  0.4970981E-08 -0.6959532E-09 -0.1461676E-03  0.1191206E-03  0.2953494E-07  0.1515600E-07 -0.6523988E+01  0.2258058E+01 -0.2634901E-14  0.8172080E-16
  0.2300000E+01  0.3483618E+01 -0.3917202E+00  0.4970981E-08 -0.7978080E-09 -0.1461676E-03  0.4869651E-04  0.2953494E-07 -0.3682573E-08 -0.6523988E+01  0.1220852E+01 -0.2634901E-14  0.3470328E-15
  0.2400000E+01  0.3483618E+01 -0.2121180E+00  0.4970981E-08 -0.7561031E-09 -0.1461676E-03 -0.3120264E-04  0.2953494E-07 -0.2167176E-07 -0.6523988E+01 -0.1561301E-01 -0.2634901E-14  0.5352889E-15
  0.2500000E+01  0.3483618E+01 -0.8380035E-02  0.4970981E-08 -0.5808619E-09 -0.1461676E-03 -0.1015337E-03  0.2953494E-07 -0.3489268E-07 -0.6523988E+01 -0.1172407E+01 -0.2634901E-14  0.5932750E-15
  0.2600000E+01  0.3483618E+01  0.1749520E+00  0.4970981E-08 -0.3060884E-09 -0.1461676E-03 -0.1457986E-03  0.2953494E-07 -0.4050386E-07 -0.6523988E+01 -0.2001436E+01 -0.2634901E-14  0.4987554E-15
  0.2700000E+01  0.3483618E+01  0.3011651E+00  0.4970981E-08  0.1657185E-10 -0.1461676E-03 -0.1537279E-03  0.2953494E-07 -0.3735980E-07 -0.6523988E+01 -0.2338521E+01 -0.2634901E-14  0.2669867E-15
  0.2800000E+01  0.3483618E+01  0.3486257E+00  0.4970981E-08  0.3274619E-09 -0.1461676E-03 -0.1235172E-03  0.2953494E-07 -0.2624539E-07 -0.6523988E+01 -0.2135895E+01 -0.2634901E-14 -0.5180067E-16
  0.2900000E+01  0.3483618E+01  0.3143544E+00  0.4970981E-08  0.5700032E-09 -0.1461676E-03 -0.6214486E-04  0.2953494E-07 -0.9678031E-08 -0.6523988E+01 -0.1467639E+01 -0.2634901E-14 -0.3835249E-15
  0.3000000E+01  0.3483618E+01  0.2133632E+00  0.4970981E-08  0.7011545E-09 -0.1461676E-03  0.1627164E-04  0.2953494E-07  0.8671591E-08 -0.6523988E+01 -0.5078611E+00 -0.2634901E-14 -0.6474730E-15
  0.3100000E+01  0.3483618E+01  0.7413523E-01  0.4970981E-08  0.6992513E-09 -0.1461676E-03  0.9369185E-04  0.2953494E-07  0.2480588E-07 -0.6523988E+01  0.5125282E+00 -0.2634901E-14 -0.7756130E-15
  0.3200000E+01  0.3483618E+01 -0.6855325E-01  0.4970981E-08  0.5677140E-09 -0.1461676E-03  0.1522064E-03  0.2953494E-07  0.3528431E-07 -0.6523988E+01  0.1359979E+01 -0.2634901E-14 -0.7294017E-15
  0.3300000E+01  0.3483618E+01 -0.1817526E+00  0.4970981E-08  0.3339696E-09 -0.1461676E-03  0.1780301E-03  0.2953494E-07  0.3796791E-07 -0.6523988E+01  0.1850889E+01 -0.2634901E-14 -0.5100273E-15
  0.3400000E+01  0.3483618E+01 -0.2415626E+00  0.4970981E-08  0.4382347E-10 -0.1461676E-03  0.1645528E-03  0.2953494E-07  0.3246078E-07 -0.6523988E+01  0.1890828E+01 -0.2634901E-14 -0.1595044E-15
  0.3500000E+01  0.3483618E+01 -0.2379100E+00  0.4970981E-08 -0.2475503E-09 -0.1461676E-03  0.1137924E-03  0.2953494E-07  0.2015673E-07 -0.6523988E+01  0.1492076E+01 -0.2634901E-14  0.2478320E-15
  0.3600000E+01  0.3483618E+01 -0.1759598E+00  0.4970981E-08 -0.4862178E-09 -0.1461676E-03  0.3595476E-04  0.2953494E-07  0.3889963E-08 -0.6523988E+01  0.7663321E+00 -0.2634901E-14  0.6216375E-15
  0.3700000E+01  0.3483618E+01 -0.7402257E-01  0.4970981E-08 -0.6295793E-09 -0.1461676E-03 -0.5278509E-04  0.2953494E-07 -0.1272293E-07 -0.6523988E+01 -0.1048442E+00 -0.2634901E-14  0.8759950E-15
  0.3800000E+01  0.3483618E+01  0.4138746E-01  0.4970981E-08 -0.6540358E-09 -0.1461676E-03 -0.1337722E-03  0.2953494E-07 -0.2609607E-07 -0.6523988E+01 -0.9143265E+00 -0.2634901E-14  0.9493017E-15
  0.3900000E+01  0.3483618E+01  0.1420818E+00  0.4970981E-08 -0.5587746E-09 -0.1461676E-03 -0.1898645E-03  0.2953494E-07 -0.3345682E-07 -0.6523988E+01 -0.1477819E+01 -0.2634901E-14  0.8189649E-15
  0.4000000E+01  0.3483618E+01  0.2047606E+00  0.4970981E-08 -0.3650799E-09 -0.1461676E-03 -0.2090592E-03  0.2953494E-07 -0.3342536E-07 -0.6523988E+01 -0.1675165E+01 -0.2634901E-14  0.5074319E-15
  0.4100000E+01  0.3483618E+01  0.2161272E+00  0.4970981E-08 -0.1114595E-09 -0.1461676E-03 -0.1869902E-03  0.2953494E-07 -0.2626911E-07 -0.6523988E+01 -0.1475419E+01 -0.2634901E-14  0.7803638E-16
  0.4200000E+01  0.3483618E+01  0.1754583E+00  0.4970981E-08  0.1542900E-09 -0.1461676E-03 -0.1277773E-03  0.2953494E-07 -0.1378565E-07 -0.6523988E+01 -0.9404827E+00 -0.2634901E-14 -0.3785145E-15
  0.4300000E+01  0.3483618E+01  0.9417506E-01  0.4970981E-08  0.3843977E-09 -0.1461676E-03 -0.4308327E-04  0.2953494E-07  0.1146150E-08 -0.6523988E+01 -0.2072843E+00 -0.2634901E-14 -0.7640140E-15
  0.4400000E+01  0.3483618E+01 -0.7350403E-02  0.4970981E-08  0.5399424E-09 -0.1461676E-03  0.5038451E-04  0.2953494E-07  0.1523649E-07 -0.6523988E+01  0.5466757E+00 -0.2634901E-14 -0.9945495E-15
  0.4500000E+01  0.3483618E+01 -0.1048922E+00  0.4970981E-08  0.5974714E-09 -0.1461676E-03  0.1343685E-03  0.2953494E-07  0.2551737E-07 -0.6523988E+01  0.1145856E+01 -0.2634901E-14 -0.1019230E-14
  0.4600000E+01  0.3483618E+01 -0.1761206E+00  0.4970981E-08  0.5522893E-09 -0.1461676E-03  0.1927890E-03  0.2953494E-07  0.2997412E-07 -0.6523988E+01  0.1457216E+01 -0.2634901E-14 -0.8316257E-15
  0.4700000E+01  0.3483618E+01 -0.2056575E+00  0.4970981E-08  0.4179821E-09 -0.1461676E-03  0.2149288E-03  0.2953494E-07  0.2793859E-07 -0.6523988E+01  0.1419459E+01 -0.2634901E-14 -0.4712989E-15
  0.4800000E+01  0.3483618E+01 -0.1883112E+00  0.4970981E-08  0.2225727E-09 -0.1461676E-03  0.1974213E-03  0.2953494E-07  0.2016814E-07 -0.6523988E+01  0.1054617E+01 -0.2634901E-14 -0.1507941E-16
  0.4900000E+01  0.3483618E+01 -0.1298310E+00  0.4970981E-08  0.2305496E-11 -0.1461676E-03  0.1446805E-03  0.2953494E-07  0.8607049E-08 -0.6523988E+01  0.4598845E+00 -0.2634901E-14  0.4399483E-15
  0.5000000E+01  0.3483618E+01 -0.4511144E-01  0.4970981E-08 -0.2054853E-09 -0.1461676E-03  0.6773537E-04  0.2953494E-07 -0.4100386E-08 -0.6523988E+01 -0.2177012E+00 -0.2634901E-14  0.7978539E-15
  0.5100000E+01  0.3483618E+01  0.4562332E-01  0.4970981E-08 -0.3689800E-09 -0.1461676E-03 -0.1822068E-04  0.2953494E-07 -0.1522378E-07 -0.6523988E+01 -0.8172933E+00 -0.2634901E-14  0.9848521E-15
  0.5200000E+01  0.3483618E+01  0.1216954E+00  0.4970981E-08 -0.4667066E-09 -0.1461676E-03 -0.9700611E-04  0.2953494E-07 -0.2254392E-07 -0.6523988E+01 -0.1202228E+01 -0.2634901E-14  0.9651493E-15
  0.5300000E+01  0.3483618E+01  0.1667354E+00  0.4970981E-08 -0.4898871E-09 -0.1461676E-03 -0.1546666E-03  0.2953494E-07 -0.2479980E-07 -0.6523988E+01 -0.1291048E+01 -0.2634901E-14  0.7481403E-15
  0.5400000E+01  0.3483618E+01  0.1722441E+00  0.4970981E-08 -0.4421825E-09 -0.1461676E-03 -0.1820652E-03  0.2953494E-07 -0.2189586E-07 -0.6523988E+01 -0.1074581E+01 -0.2634901E-14  0.3854441E-15
  0.5500000E+01  0.3483618E+01  0.1391774E+00  0.4970981E-08 -0.3372789E-09 -0.1461676E-03 -0.1763536E-03  0.2953494E-07 -0.1483650E-07 -0.6523988E+01 -0.6155090E+00 -0.2634901E-14 -0.4139699E-16
  0.5600000E+01  0.3483618E+01  0.7727846E-01  0.4970981E-08 -0.1951440E-09 -0.1461676E-03 -0.1410866E-03  0.2953494E-07 -0.5421936E-08 -0.6523988E+01 -0.3114350E-01 -0.2634901E-14 -0.4396342E-15
  0.5700000E+01  0.3483618E+01  0.2406930E-02  0.4970981E-08 -0.3795934E-10 -0.1461676E-03 -0.8504706E-04  0.2953494E-07  0.4209428E-08 -0.6523988E+01  0.5360433E+00 -0.2634901E-14 -0.7260857E-15
  0.5800000E+01  0.3483618E+01 -0.6742709E-01  0.4970981E-08  0.1134030E-09 -0.1461676E-03 -0.2010988E-04  0.2953494E-07  0.1207677E-07 -0.6523988E+01  0.9527880E+00 -0.2634901E-14 -0.8452338E-15
  0.5900000E+01  0.3483618E+01 -0.1163529E+00  0.4970981E-08  0.2417892E-09 -0.1461676E-03  0.4134512E-04  0.2953494E-07  0.1677471E-07 -0.6523988E+01  0.1126133E+01 -0.2634901E-14 -0.7805964E-15
  0.6000000E+01  0.3483618E+01 -0.1342321E+00  0.4970981E-08  0.3348757E-09 -0.1461676E-03  0.8889609E-04  0.2953494E-07  0.1772294E-07 -0.6523988E+01  0.1023977E+01 -0.2634901E-14 -0.5569409E-15
  0.6100000E+01  0.3483618E+01 -0.1187550E+00  0.4970981E-08  0.3852164E-09 -0.1461676E-03  0.1159180E-03  0.2953494E-07  0.1520444E-07 -0.6523988E+01  0.6806298E+00 -0.2634901E-14 -0.2330676E-15
  0.6200000E+01  0.3483618E+01 -0.7560725E-01  0.4970981E-08  0.3896805E-09 -0.1461676E-03  0.1204646E-03  0.2953494E-07  0.1020171E-07 -0.6523988E+01  0.1864912E+00 -0.2634901E-14  0.1129338E-15
  0.6300000E+01  0.3483618E+01 -0.1675599E-01  0.4970981E-08  0.3488205E-09 -0.1461676E-03  0.1050873E-03  0.2953494E-07  0.4089222E-08 -0.6523988E+01 -0.3351817E+00 -0.2634901E-14  0.4023359E-15
  0.6400000E+01  0.3483618E+01  0.4267204E-01  0.4970981E-08  0.2665610E-09 -0.1461676E-03  0.7574568E-04  0.2953494E-07 -0.1731686E-08 -0.6523988E+01 -0.7585868E+00 -0.2634901E-14  0.5739402E-15
  0.6500000E+01  0.3483618E+01  0.8812473E-01  0.4970981E-08  0.1503237E-09 -0.1461676E-03  0.4011499E-04  0.2953494E-07 -0.6159689E-08 -0.6523988E+01 -0.9853459E+00 -0.2634901E-14  0.5974966E-15
  0.6600000E+01  0.3483618E+01  0.1090668E+00  0.4970981E-08  0.1138245E-10 -0.1461676E-03  0.5739908E-05  0.2953494E-07 -0.8606141E-08 -0.6523988E+01 -0.9670683E+00 -0.2634901E-14  0.4793983E-15
  0.6700000E+01  0.3483618E+01  0.1013317E+00  0.4970981E-08 -0.1349827E-09 -0.1461676E-03 -0.2154589E-04  0.2953494E-07 -0.9051681E-08 -0.6523988E+01 -0.7153698E+00 -0.2634901E-14  0.2595149E-15
  0.6800000E+01  0.3483618E+01  0.6786766E-01  0.4970981E-08 -0.2700765E-09 -0.1461676E-03 -0.3860686E-04  0.2953494E-07 -0.7948397E-08 -0.6523988E+01 -0.2973467E+00 -0.2634901E-14  0.1530256E-18
  0.6900000E+01  0.3483618E+01  0.1776318E-01  0.4970981E-08 -0.3735106E-09 -0.1461676E-03 -0.4523018E-04  0.2953494E-07 -0.6010991E-08 -0.6523988E+01  0.1820269E+00 -0.2634901E-14 -0.2300257E-15
  0.7000000E+01  0.3483618E+01 -0.3615249E-01  0.4970981E-08 -0.4261676E-09 -0.1461676E-03 -0.4362798E-04  0.2953494E-07 -0.3964654E-08 -0.6523988E+01  0.6059978E+00 -0.2634901E-14 -0.3731355E-15
  0.7100000E+01  0.3483618E+01 -0.8051833E-01  0.4970981E-08 -0.4139902E-09 -0.1461676E-03 -0.3740676E-04  0.2953494E-07 -0.2324986E-08 -0.6523988E+01  0.8742378E+00 -0.2634901E-14 -0.3961184E-15
  0.7200000E+01  0.3483618E+01 -0.1046611E+00  0.4970981E-08 -0.3319067E-09 -0.1461676E-03 -0.3032652E-04  0.2953494E-07 -0.1271887E-08 -0.6523988E+01  0.9263275E+00 -0.2634901E-14 -0.2983476E-15
  0.7300000E+01  0.3483618E+01 -0.1030717E+00  0.4970981E-08 -0.1868085E-09 -0.1461676E-03 -0.2518053E-04  0.2953494E-07 -0.6464961E-09 -0.6523988E+01  0.7551258E+00 -0.2634901E-14 -0.1110670E-15
  0.7400000E+01  0.3483618E+01 -0.7656354E-01  0.4970981E-08  0.1444422E-11 -0.1461676E-03 -0.2307950E-04  0.2953494E-07 -0.6544648E-10 -0.6523988E+01  0.4070431E+00 -0.2634901E-14  0.1110971E-15
  0.7500000E+01  0.3483618E+01 -0.3189702E-01  0.4970981E-08  0.2017426E-09 -0.1461676E-03 -0.2330186E-04  0.2953494E-07  0.8908199E-09 -0.6523988E+01 -0.3041123E-01 -0.2634901E-14  0.3043627E-15
  0.7600000E+01  0.3483618E+01  0.2000736E-01  0.4970981E-08  0.3763217E-09 -0.1461676E-03 -0.2370989E-04  0.2953494E-07  0.2476782E-08 -0.6523988E+01 -0.4506153E+00 -0.2634901E-14  0.4122437E-15
  0.7700000E+01  0.3483618E+01  0.6678262E-01  0.4970981E-08  0.4877498E-09 -0.1461676E-03 -0.2158872E-04  0.2953494E-07  0.4636411E-08 -0.6523988E+01 -0.7537661E+00 -0.2634901E-14  0.4001423E-15
  0.7800000E+01  0.3483618E+01  0.9758959E-01  0.4970981E-08  0.5070036E-09 -0.1461676E-03 -0.1465435E-04  0.2953494E-07  0.6961886E-08 -0.6523988E+01 -0.8705329E+00 -0.2634901E-14  0.2645290E-15
  0.7900000E+01  0.3483618E+01  0.1056345E+00  0.4970981E-08  0.4209606E-09 -0.1461676E-03 -0.1945564E-05  0.2953494E-07  0.8777325E-08 -0.6523988E+01 -0.7778249E+00 -0.2634901E-14  0.3443046E-16
  0.8000000E+01  0.3483618E+01  0.8965532E-01  0.4970981E-08  0.2374217E-09 -0.1461676E-03  0.1565781E-04  0.2953494E-07  0.9327586E-08 -0.6523988E+01 -0.5031404E+00 -0.2634901E-14 -0.2351638E-15
  0.8100000E+01  0.3483618E+01  0.5404142E-01  0.4970981E-08 -0.1388559E-10 -0.1461676E-03  0.3543819E-04  0.2953494E-07  0.8022873E-08 -0.6523988E+01 -0.1166753E+00 -0.2634901E-14 -0.4764162E-15
  0.8200000E+01  0.3483618E+01  0.7623620E-02  0.4970981E-08 -0.2850951E-09 -0.1461676E-03  0.5337611E-04  0.2953494E-07  0.4666683E-08 -0.6523988E+01  0.2865067E+00 -0.2634901E-14 -0.6251410E-15
  0.8300000E+01  0.3483618E+01 -0.3855510E-01  0.4970981E-08 -0.5185894E-09 -0.1461676E-03  0.6510023E-04  0.2953494E-07 -0.4033169E-09 -0.6523988E+01  0.6098594E+00 -0.2634901E-14 -0.6367485E-15
  0.8400001E+01  0.3483618E+01 -0.7390916E-01  0.4970981E-08 -0.6585844E-09 -0.1461676E-03  0.6699984E-04  0.2953494E-07 -0.6312518E-08 -0.6523988E+01  0.7784424E+00 -0.2634901E-14 -0.4977529E-15
  0.8500000E+01  0.3483618E+01 -0.9078879E-01  0.4970981E-08 -0.6637091E-09 -0.1461676E-03  0.5724188E-04  0.2953494E-07 -0.1180106E-07 -0.6523988E+01  0.7563249E+00 -0.2634901E-14 -0.2300878E-15
  0.8600000E+01  0.3483618E+01 -0.8617340E-01  0.4970981E-08 -0.5178006E-09 -0.1461676E-03  0.3639453E-04  0.2953494E-07 -0.1550292E-07 -0.6523988E+01  0.5541773E+00 -0.2634901E-14  0.1129440E-15
  0.8700000E+01  0.3483618E+01 -0.6220821E-01  0.4970981E-08 -0.2362740E-09 -0.1461676E-03  0.7519021E-05  0.2953494E-07 -0.1628980E-07 -0.6523988E+01  0.2255280E+00 -0.2634901E-14  0.4581614E-15
  0.8800000E+01  0.3483618E+01 -0.2550044E-01  0.4970981E-08  0.1338595E-09 -0.1461676E-03 -0.2434319E-04  0.2953494E-07 -0.1359205E-07 -0.6523988E+01 -0.1471479E+00 -0.2634901E-14  0.7288921E-15
  0.8900001E+01  0.3483618E+01  0.1462557E-01  0.4970981E-08  0.5209669E-09 -0.1461676E-03 -0.5317745E-04  0.2953494E-07 -0.7611144E-08 -0.6523988E+01 -0.4729612E+00 -0.2634901E-14  0.8624133E-15
  0.9000000E+01  0.3483618E+01  0.4845294E-01  0.4970981E-08  0.8419445E-09 -0.1461676E-03 -0.7327391E-04  0.2953494E-07  0.6434423E-09 -0.6523988E+01 -0.6746401E+00 -0.2634901E-14  0.8244743E-15
  0.9100000E+01  0.3483618E+01  0.6821043E-01  0.4970981E-08  0.1019219E-08 -0.1461676E-03 -0.8049601E-04  0.2953494E-07  0.9517099E-08 -0.6523988E+01 -0.7067923E+00 -0.2634901E-14  0.6174940E-15
  0.9200000E+01  0.3483618E+01  0.6985880E-01  0.4970981E-08  0.9981619E-09 -0.1461676E-03 -0.7322875E-04  0.2953494E-07  0.1704744E-07 -0.6523988E+01 -0.5660418E+00 -0.2634901E-14  0.2805480E-15
  0.9300000E+01  0.3483618E+01  0.5392062E-01  0.4970981E-08  0.7611552E-09 -0.1461676E-03 -0.5280053E-04  0.2953494E-07  0.2140777E-07 -0.6523988E+01 -0.2908540E+00 -0.2634901E-14 -0.1188921E-15
  0.9400001E+01  0.3483618E+01  0.2518431E-01  0.4970981E-08  0.3349248E-09 -0.1461676E-03 -0.2325197E-04  0.2953494E-07  0.2135272E-07 -0.6523988E+01  0.4870930E-01 -0.2634901E-14 -0.4995569E-15
  0.9500000E+01  0.3483618E+01 -0.8612218E-02  0.4970981E-08 -0.2110584E-09 -0.1461676E-03  0.9498694E-05  0.2953494E-07  0.1655821E-07 -0.6523988E+01  0.3686163E+00 -0.2634901E-14 -0.7840393E-15
  0.9600000E+01  0.3483618E+01 -0.3876482E-01  0.4970981E-08 -0.7755054E-09 -0.1461676E-03  0.3891045E-04  0.2953494E-07  0.7765911E-08 -0.6523988E+01  0.5914583E+00 -0.2634901E-14 -0.9155101E-15
  0.9700000E+01  0.3483618E+01 -0.5775894E-01  0.4970981E-08 -0.1243911E-08 -0.1461676E-03  0.5923044E-04  0.2953494E-07 -0.3316027E-08 -0.6523988E+01  0.6649898E+00 -0.2634901E-14 -0.8697229E-15
  0.9800000E+01  0.3483618E+01 -0.6107242E-01  0.4970981E-08 -0.1511483E-08 -0.1461676E-03  0.6672852E-04  0.2953494E-07 -0.1434586E-07 -0.6523988E+01  0.5742270E+00 -0.2634901E-14 -0.6597237E-15
  0.9900001E+01  0.3483618E+01 -0.4819525E-01  0.4970981E-08 -0.1505746E-08 -0.1461676E-03  0.6049187E-04  0.2953494E-07 -0.2284970E-07 -0.6523988E+01  0.3442866E+00 -0.2634901E-14 -0.3322855E-15
Zone t="DoF    2",I=   100,F=POINT
  0.0000000E+00 -0.5535743E-08 -0.4114412E-09  0.3483745E+01  0.9447668E+00  0.2415756E-05  0.2015599E-05  0.6523932E+01  0.4226432E+01 -0.2069921E-07 -0.1484841E-07 -0.9191922E-10 -0.1283981E-09
  0.1000000E+00 -0.5535743E-08 -0.3756525E-09  0.3483745E+01  0.8583466E+00  0.2415756E-05  0.1828118E-05  0.6523932E+01  0.3803147E+01 -0.2069921E-07 -0.1354733E-07 -0.9191922E-10 -0.1158216E-09
  0.2000000E+00 -0.5535743E-08 -0.2747804E-09  0.3483745E+01  0.6156432E+00  0.2415756E-05  0.1301384E-05  0.6523932E+01  0.2620772E+01 -0.2069921E-07 -0.9878349E-08 -0.9191922E-10 -0.8064660E-10
  0.3000000E+00 -0.5535743E-08 -0.1270626E-09  0.3483745E+01  0.2630376E+00  0.2415756E-05  0.5355771E-06  0.6523932E+01  0.9232228E+00 -0.2069921E-07 -0.4501212E-08 -0.9191922E-10 -0.3000335E-10
  0.4000000E+00 -0.5535743E-08  0.4099358E-10  0.3483745E+01 -0.1324627E+00  0.2415756E-05 -0.3240961E-06  0.6523932E+01 -0.9407004E+00 -0.2069921E-07  0.1620173E-08 -0.9191922E-10  0.2588890E-10
  0.5000000E+00 -0.5535743E-08  0.1996133E-09  0.3483745E+01 -0.4964516E+00  0.2415756E-05 -0.1115516E-05  0.6523932E+01 -0.2590810E+01 -0.2069921E-07  0.7394470E-08 -0.9191922E-10  0.7584477E-10
  0.6000000E+00 -0.5535743E-08  0.3212748E-09  0.3483745E+01 -0.7616904E+00  0.2415756E-05 -0.1690888E-05  0.6523932E+01 -0.3695168E+01 -0.2069921E-07  0.1180211E-07 -0.9191922E-10  0.1100211E-09
  0.7000000E+00 -0.5535743E-08  0.3856638E-09  0.3483745E+01 -0.8810709E+00  0.2415756E-05 -0.1944971E-05  0.6523932E+01 -0.4038839E+01 -0.2069921E-07  0.1407986E-07 -0.9191922E-10  0.1219227E-09
  0.8000000E+00 -0.5535743E-08  0.3831212E-09  0.3483745E+01 -0.8363894E+00  0.2415756E-05 -0.1834805E-05  0.6523932E+01 -0.3567194E+01 -0.2069921E-07  0.1385676E-07 -0.9191922E-10  0.1096864E-09
  0.9000000E+00 -0.5535743E-08  0.3159832E-09  0.3483745E+01 -0.6412317E+00  0.2415756E-05 -0.1387147E-05  0.6523932E+01 -0.2394796E+01 -0.2069921E-07  0.1121644E-07 -0.9191922E-10  0.7638100E-10
  0.1000000E+01 -0.5535743E-08  0.1976606E-09  0.3483745E+01 -0.3374994E+00  0.2415756E-05 -0.6923189E-06  0.6523932E+01 -0.7784051E+00 -0.2069921E-07  0.6675253E-08 -0.9191922E-10  0.2927456E-10
  0.1100000E+01 -0.5535743E-08  0.4975811E-10  0.3483745E+01  0.1359195E-01  0.2415756E-05  0.1141758E-06  0.6523932E+01  0.9396121E+00 -0.2069921E-07  0.1081246E-08 -0.9191922E-10 -0.2176033E-10
  0.1200000E+01 -0.5535743E-08 -0.1020921E-09  0.3483745E+01  0.3440954E+00  0.2415756E-05  0.8784790E-06  0.6523932E+01  0.2404916E+01 -0.2069921E-07 -0.4546318E-08 -0.9191922E-10 -0.6635005E-10
  0.1300000E+01 -0.5535743E-08 -0.2328218E-09  0.3483745E+01  0.5928674E+00  0.2415756E-05  0.1458275E-05  0.6523932E+01  0.3325821E+01 -0.2069921E-07 -0.9205971E-08 -0.9191922E-10 -0.9577866E-10
  0.1400000E+01 -0.5535743E-08 -0.3220677E-09  0.3483745E+01  0.7172893E+00  0.2415756E-05  0.1749843E-05  0.6523932E+01  0.3532921E+01 -0.2069921E-07 -0.1209615E-07 -0.9191922E-10 -0.1047429E-09
  0.1500000E+01 -0.5535743E-08 -0.3571591E-09  0.3483745E+01  0.7008651E+00  0.2415756E-05  0.1707047E-05  0.6523932E+01  0.3011268E+01 -0.2069921E-07 -0.1275647E-07 -0.9191922E-10 -0.9234210E-10
  0.1600000E+01 -0.5535743E-08 -0.3345641E-09  0.3483745E+01  0.5552886E+00  0.2415756E-05  0.1348683E-05  0.6523932E+01  0.1898820E+01 -0.2069921E-07 -0.1114290E-07 -0.9191922E-10 -0.6211234E-10
  0.1700000E+01 -0.5535743E-08 -0.2597267E-09  0.3483745E+01  0.3167670E+00  0.2415756E-05  0.7530479E-06  0.6523932E+01  0.4523131E+00 -0.2069921E-07 -0.7623992E-08 -0.9191922E-10 -0.2112430E-10
  0.1800000E+01 -0.5535743E-08 -0.1455528E-09  0.3483745E+01  0.3756666E-01  0.2415756E-05  0.4107685E-07  0.6523932E+01 -0.1011249E+01 -0.2069921E-07 -0.2901009E-08 -0.9191922E-10  0.2163600E-10
  0.1900000E+01 -0.5535743E-08 -0.9992366E-11  0.3483745E+01 -0.2252933E+00  0.2415756E-05 -0.6483278E-06  0.6523932E+01 -0.2184213E+01 -0.2069921E-07  0.2131433E-08 -0.9191922E-10  0.5723522E-10
  0.2000000E+01 -0.5535743E-08  0.1267770E-09  0.3483745E+01 -0.4217580E+00  0.2415756E-05 -0.1185713E-05  0.6523932E+01 -0.2833629E+01 -0.2069921E-07  0.6556232E-08 -0.9191922E-10  0.7867733E-10
  0.2100000E+01 -0.5535743E-08  0.2450772E-09  0.3483745E+01 -0.5184305E+00  0.2415756E-05 -0.1475762E-05  0.6523932E+01 -0.2848298E+01 -0.2069921E-07  0.9603458E-08 -0.9191922E-10  0.8230207E-10
  0.2200000E+01 -0.5535743E-08  0.3280794E-09  0.3483745E+01 -0.5043361E+00  0.2415756E-05 -0.1474484E-05  0.6523932E+01 -0.2257879E+01 -0.2069921E-07  0.1078667E-07 -0.9191922E-10  0.6841424E-10
  0.2300000E+01 -0.5535743E-08  0.3636088E-09  0.3483745E+01 -0.3917469E+00  0.2415756E-05 -0.1195746E-05  0.6523932E+01 -0.1220765E+01 -0.2069921E-07  0.9981457E-08 -0.9191922E-10  0.4103434E-10
  0.2400000E+01 -0.5535743E-08  0.3453819E-09  0.3483745E+01 -0.2121417E+00  0.2415756E-05 -0.7062206E-06  0.6523932E+01  0.1559074E-01 -0.2069921E-07  0.7433119E-08 -0.9191922E-10  0.6857853E-11
  0.2500000E+01 -0.5535743E-08  0.2737442E-09  0.3483745E+01 -0.8398438E-02  0.2415756E-05 -0.1101721E-06  0.6523932E+01  0.1172279E+01 -0.2069921E-07  0.3694775E-08 -0.9191922E-10 -0.2632054E-10
  0.2600000E+01 -0.5535743E-08  0.1559178E-09  0.3483745E+01  0.1749402E+00  0.2415756E-05  0.4725447E-06  0.6523932E+01  0.2001230E+01 -0.2069921E-07 -0.4899209E-09 -0.9191922E-10 -0.5135391E-10
  0.2700000E+01 -0.5535743E-08  0.5725440E-11  0.3483745E+01  0.3011602E+00  0.2415756E-05  0.9306269E-06  0.6523932E+01  0.2338278E+01 -0.2069921E-07 -0.4334753E-08 -0.9191922E-10 -0.6327109E-10
  0.2800000E+01 -0.5535743E-08 -0.1573296E-09  0.3483745E+01  0.3486274E+00  0.2415756E-05  0.1182732E-05  0.6523932E+01  0.2135664E+01 -0.2069921E-07 -0.7160104E-08 -0.9191922E-10 -0.6025980E-10
  0.2900000E+01 -0.5535743E-08 -0.3097936E-09  0.3483745E+01  0.3143620E+00  0.2415756E-05  0.1191982E-05  0.6523932E+01  0.1467466E+01 -0.2069921E-07 -0.8514657E-08 -0.9191922E-10 -0.4390934E-10
  0.3000000E+01 -0.5535743E-08 -0.4268803E-09  0.3483745E+01  0.2133757E+00  0.2415756E-05  0.9709796E-06  0.6523932E+01  0.5077800E+00 -0.2069921E-07 -0.8247286E-08 -0.9191922E-10 -0.1868987E-10
  0.3100000E+01 -0.5535743E-08 -0.4859136E-09  0.3483745E+01  0.7415188E-01  0.2415756E-05  0.5767348E-06  0.6523932E+01 -0.5125020E+00 -0.2069921E-07 -0.6517774E-08 -0.9191922E-10  0.9185070E-11
  0.3200000E+01 -0.5535743E-08 -0.4702604E-09  0.3483745E+01 -0.6853364E-01  0.2415756E-05  0.9700418E-07  0.6523932E+01 -0.1359853E+01 -0.2069921E-07 -0.3747289E-08 -0.9191922E-10  0.3323356E-10
  0.3300000E+01 -0.5535743E-08 -0.3731671E-09  0.3483745E+01 -0.1817316E+00  0.2415756E-05 -0.3688203E-06  0.6523932E+01 -0.1850690E+01 -0.2069921E-07 -0.5212082E-09 -0.9191922E-10  0.4817508E-10
  0.3400000E+01 -0.5535743E-08 -0.2006967E-09  0.3483745E+01 -0.2415422E+00  0.2415756E-05 -0.7301425E-06  0.6523932E+01 -0.1890598E+01 -0.2069921E-07  0.2533760E-08 -0.9191922E-10  0.5106490E-10
  0.3500000E+01 -0.5535743E-08  0.2706976E-10  0.3483745E+01 -0.2378925E+00  0.2415756E-05 -0.9227049E-06  0.6523932E+01 -0.1491862E+01 -0.2069921E-07  0.4872609E-08 -0.9191922E-10  0.4185167E-10
  0.3600000E+01 -0.5535743E-08  0.2772639E-09  0.3483745E+01 -0.1759480E+00  0.2415756E-05 -0.9198611E-06  0.6523932E+01 -0.7661771E+00 -0.2069921E-07  0.6130839E-08 -0.9191922E-10  0.2325661E-10
  0.3700000E+01 -0.5535743E-08  0.5081802E-09  0.3483745E+01 -0.7401878E-01  0.2415756E-05 -0.7355868E-06  0.6523932E+01  0.1049099E+00 -0.2069921E-07  0.6180455E-08 -0.9191922E-10  0.2833013E-13
  0.3800000E+01 -0.5535743E-08  0.6757013E-09  0.3483745E+01  0.4138153E-01  0.2415756E-05 -0.4191099E-06  0.6523932E+01  0.9142919E+00 -0.2069921E-07  0.5135163E-08 -0.9191922E-10 -0.2223224E-10
  0.3900000E+01 -0.5535743E-08  0.7413319E-09  0.3483745E+01  0.1420658E+00  0.2415756E-05 -0.4269516E-07  0.6523932E+01  0.1477693E+01 -0.2069921E-07  0.3306274E-08 -0.9191922E-10 -0.3839236E-10
  0.4000000E+01 -0.5535743E-08  0.6804546E-09  0.3483745E+01  0.2047359E+00  0.2415756E-05  0.3144728E-06  0.6523932E+01  0.1674977E+01 -0.2069921E-07  0.1122515E-08 -0.9191922E-10 -0.4494635E-10
  0.4100000E+01 -0.5535743E-08  0.4890905E-09  0.3483745E+01  0.2160969E+00  0.2415756E-05  0.5827827E-06  0.6523932E+01  0.1475210E+01 -0.2069921E-07 -0.9676830E-09 -0.9191922E-10 -0.4075504E-10
  0.4200000E+01 -0.5535743E-08  0.1874990E-09  0.3483745E+01  0.1754269E+00  0.2415756E-05  0.7156107E-06  0.6523932E+01  0.9402968E+00 -0.2069921E-07 -0.2589264E-08 -0.9191922E-10 -0.2721159E-10
  0.4300000E+01 -0.5535743E-08 -0.1805955E-09  0.3483745E+01  0.9414795E-01  0.2415756E-05  0.6970841E-06  0.6523932E+01  0.2071593E+00 -0.2069921E-07 -0.3509718E-08 -0.9191922E-10 -0.7818825E-11
  0.4400000E+01 -0.5535743E-08 -0.5536582E-09  0.3483745E+01 -0.7368057E-02  0.2415756E-05  0.5429590E-06  0.6523932E+01 -0.5467148E+00 -0.2069921E-07 -0.3671282E-08 -0.9191922E-10  0.1270370E-10
  0.4500000E+01 -0.5535743E-08 -0.8622881E-09  0.3483745E+01 -0.1048966E+00  0.2415756E-05  0.2948759E-06  0.6523932E+01 -0.1145804E+01 -0.2069921E-07 -0.3181810E-08 -0.9191922E-10  0.2955845E-10
  0.4600000E+01 -0.5535743E-08 -0.1041997E-08  0.3483745E+01 -0.1761100E+00  0.2415756E-05  0.9714627E-08  0.6523932E+01 -0.1457086E+01 -0.2069921E-07 -0.2269642E-08 -0.9191922E-10  0.3898340E-10
  0.4700000E+01 -0.5535743E-08 -0.1046438E-08  0.3483745E+01 -0.2056331E+00  0.2415756E-05 -0.2533694E-06  0.6523932E+01 -0.1419281E+01 -0.2069921E-07 -0.1215562E-08 -0.9191922E-10  0.3908357E-10
  0.4800000E+01 -0.5535743E-08 -0.8584304E-09  0.3483745E+01 -0.1882769E+00  0.2415756E-05 -0.4452715E-06  0.6523932E+01 -0.1054430E+01 -0.2069921E-07 -0.2791274E-09 -0.9191922E-10  0.3019887E-10
  0.4900000E+01 -0.5535743E-08 -0.4962303E-09  0.3483745E+01 -0.1297928E+00  0.2415756E-05 -0.5360588E-06  0.6523932E+01 -0.4597296E+00 -0.2069921E-07  0.3625652E-09 -0.9191922E-10  0.1473984E-10
  0.5000000E+01 -0.5535743E-08 -0.1327023E-10  0.3483745E+01 -0.4507641E-01  0.2415756E-05 -0.5191474E-06  0.6523932E+01  0.2177912E+00 -0.2069921E-07  0.6497461E-09 -0.9191922E-10 -0.3451443E-11