VARIABLES="w (rad/s)"
"A   1   1" "B   1   1"
"A   1   2" "B   1   2"
"A   1   3" "B   1   3"
"A   1   4" "B   1   4"
"A   1   5" "B   1   5"
"A   1   6" "B   1   6"
Zone t="Motion of body    1 in DoF   1",I=    21,F=POINT
  0.3000000E+01  0.3546882E+01  0.1627480E+00  0.7357448E-07  0.9458745E-09 -0.2788107E-03  0.7009879E-04 -0.2061327E-06 -0.3376044E-08 -0.5088912E+01 -0.2514594E+00 -0.8289665E-14  0.2636780E-15
  0.3100000E+01  0.3513485E+01  0.1943675E+00  0.4716698E-07  0.1447916E-08 -0.4731263E-03  0.3940985E-04  0.1712432E-06  0.1210719E-07 -0.5163910E+01 -0.3177092E+00  0.8165511E-14  0.1054712E-14
  0.3200000E+01  0.3496441E+01  0.2322057E+00  0.1837179E-07  0.8149073E-09 -0.1223926E-02 -0.1963004E-03 -0.3725290E-07  0.1152512E-07 -0.5308403E+01 -0.4054198E+00  0.4163336E-15 -0.1137979E-14
  0.3300000E+01  0.3482928E+01  0.2762896E+00  0.2621109E-07 -0.1469743E-08 -0.7845236E-03 -0.3149360E-04  0.1111943E-06  0.8149073E-09 -0.5454494E+01 -0.5142635E+00 -0.1830186E-13 -0.1110223E-14
  0.3400000E+01  0.3514012E+01  0.3306636E+00 -0.1225785E-07 -0.6184564E-09 -0.3443045E-03 -0.5332157E-03  0.1057325E-06  0.1396984E-08 -0.5634459E+01 -0.6509625E+00  0.2351060E-14  0.7216450E-15
  0.3500000E+01  0.3601697E+01  0.3938073E+00  0.7882980E-08 -0.9604264E-09  0.4707405E-03 -0.2128631E-03  0.3672072E-07 -0.8614734E-08 -0.5754517E+01 -0.8032269E+00 -0.7105427E-14  0.1776357E-14
  0.3600000E+01  0.3606688E+01  0.4534076E+00  0.2085775E-07  0.3710738E-08 -0.2879898E-03 -0.9653717E-04  0.5277495E-07  0.1536682E-07 -0.5892119E+01 -0.9807555E+00  0.5551115E-14  0.1998401E-14
  0.3700000E+01  0.3641200E+01  0.5253183E+00 -0.4279050E-08  0.1178705E-08  0.4295401E-03 -0.2920032E-03 -0.1777064E-06  0.2793968E-08 -0.6074782E+01 -0.1211952E+01 -0.4320868E-14  0.1665335E-15
  0.3800000E+01  0.3577728E+01  0.5928141E+00  0.4016329E-07  0.1600711E-08 -0.1567916E-03  0.8327514E-03  0.3333155E-07  0.2537854E-07 -0.6313630E+01 -0.1505181E+01 -0.2091894E-13 -0.9436896E-15
  0.3900000E+01  0.3515703E+01  0.6599422E+00  0.6775969E-08 -0.4743924E-08 -0.5785930E-03 -0.6170422E-03 -0.2626807E-07 -0.2421439E-07 -0.6501903E+01 -0.1833986E+01 -0.1047595E-13  0.9992007E-15
  0.4000000E+01  0.3531236E+01  0.7342709E+00  0.1533772E-07  0.2270099E-08  0.2974570E-03  0.3341585E-03  0.1327135E-06  0.8381903E-08 -0.6643049E+01 -0.2179273E+01 -0.1443290E-13 -0.1776357E-14
  0.4100000E+01  0.3545283E+01  0.8144007E+00 -0.2263000E-07  0.6344635E-08  0.5480429E-03  0.4754066E-03  0.1267507E-06  0.7869676E-07 -0.6761331E+01 -0.2554148E+01  0.1841345E-14  0.6661338E-15
  0.4200000E+01  0.3549590E+01  0.8984376E+00  0.2173086E-07  0.4627509E-08 -0.7271767E-04 -0.1262695E-02  0.5454890E-07  0.1629815E-06 -0.7103026E+01 -0.3119145E+01 -0.5815454E-14 -0.2331468E-14
  0.4300000E+01  0.3562575E+01  0.9940578E+00 -0.8176145E-08  0.5646143E-08 -0.3770340E-05  0.1610130E-02 -0.8143657E-07 -0.2137385E-06 -0.7413961E+01 -0.3787536E+01 -0.7022806E-14  0.1332268E-14
  0.4400000E+01  0.3536502E+01  0.1058945E+01 -0.1635106E-07 -0.6810296E-08 -0.2546744E-03 -0.2407283E-02 -0.3784556E-06  0.1117587E-07 -0.7654084E+01 -0.4476173E+01  0.4037175E-14 -0.1110223E-14
  0.4500000E+01  0.3541582E+01  0.1148879E+01 -0.1971299E-07 -0.5820766E-10 -0.6137424E-03 -0.1085699E-03  0.4056427E-07 -0.1210719E-06 -0.7858433E+01 -0.5216243E+01 -0.5329071E-14 -0.1332268E-14
  0.4600000E+01  0.3584113E+01  0.1229100E+01  0.5061536E-08 -0.6402843E-09  0.2973235E-03  0.5854368E-03  0.3644306E-07 -0.1136213E-06 -0.8048351E+01 -0.6024939E+01 -0.9847196E-14  0.6661338E-15
  0.4700000E+01  0.3610700E+01  0.1281651E+01 -0.8124304E-08  0.1920853E-08 -0.5558197E-03 -0.9783506E-03  0.1981537E-06 -0.5774200E-07 -0.8305227E+01 -0.7023571E+01 -0.3779483E-14 -0.8881784E-15
  0.4800000E+01  0.3492132E+01  0.1243531E+01  0.1455191E-08  0.8731149E-08  0.5029142E-04 -0.1796663E-02  0.1296090E-06  0.6984919E-07 -0.8803195E+01 -0.8419779E+01  0.6661338E-14  0.3552714E-14
  0.4900000E+01  0.3386731E+01  0.1180780E+01 -0.6124871E-07 -0.8265488E-08 -0.7824022E-04  0.7249117E-03  0.2341611E-06 -0.2607703E-06 -0.9072778E+01 -0.9720900E+01  0.1051313E-13  0.4884981E-14
  0.5000000E+01  0.3272036E+01  0.1030568E+01 -0.2770685E-07 -0.1164153E-09  0.1232147E-03 -0.1248181E-02 -0.4544854E-07 -0.2682209E-06 -0.9296268E+01 -0.1104211E+02  0.2273737E-13  0.7105427E-14
Zone t="Motion of body    1 in DoF   2",I=    21,F=POINT
  0.3000000E+01 -0.4846758E-07 -0.1473381E-08  0.3546554E+01  0.1627011E+00  0.8386870E-05  0.2679881E-06  0.5088356E+01  0.2514303E+00  0.7015964E-07 -0.6402843E-08 -0.7842168E-10 -0.1113151E-10
  0.3100000E+01  0.1866401E-07  0.3492460E-09  0.3513438E+01  0.1943634E+00  0.1204110E-05 -0.6367918E-06  0.5163817E+01  0.3177318E+00  0.6609386E-07 -0.1280569E-07 -0.8115587E-10 -0.1376373E-10
  0.3200000E+01  0.1724402E-07 -0.9458745E-10  0.3496378E+01  0.2322020E+00 -0.2534362E-05  0.5937181E-06  0.5308362E+01  0.4054838E+00 -0.3550667E-07  0.5820766E-08 -0.8071072E-10 -0.1843557E-10
  0.3300000E+01 -0.1058321E-09  0.2837623E-09  0.3483201E+01  0.2762768E+00 -0.1447670E-04 -0.1771376E-05  0.5454913E+01  0.5142888E+00  0.3725290E-07  0.2328306E-08 -0.8461692E-10 -0.2117034E-10
  0.3400000E+01 -0.1092250E-07 -0.9531504E-09  0.3514314E+01  0.3306717E+00 -0.6497344E-05  0.2991874E-05  0.5634837E+01  0.6511337E+00 -0.7121878E-08  0.5587935E-08 -0.8694211E-10 -0.2623498E-10
  0.3500000E+01 -0.7882980E-08 -0.2153683E-08  0.3601990E+01  0.3939018E+00  0.1341105E-06  0.1607463E-05  0.5754803E+01  0.8032090E+00  0.1436898E-06  0.4656613E-08 -0.8887867E-10 -0.3112562E-10
  0.3600000E+01 -0.4106874E-07  0.5209586E-08  0.3606859E+01  0.4534258E+00  0.3505912E-05  0.9541400E-06  0.5892170E+01  0.9808823E+00  0.5174014E-07 -0.8847564E-08 -0.8832557E-10 -0.3915124E-10
  0.3700000E+01  0.4090268E-08  0.9313226E-09  0.3641297E+01  0.5253236E+00  0.3213818E-05 -0.1442619E-05  0.6074649E+01  0.1211822E+01 -0.5336227E-07 -0.2188608E-07 -0.9279177E-10 -0.4503765E-10
  0.3800000E+01 -0.1338776E-07  0.2546585E-08  0.3578029E+01  0.5929176E+00 -0.8172111E-05 -0.2952293E-06  0.6313996E+01  0.1505339E+01 -0.7940751E-07  0.2747402E-07 -0.9746692E-10 -0.5288021E-10
  0.3900000E+01 -0.5217794E-07 -0.8381903E-08  0.3516034E+01  0.6600338E+00  0.1357343E-04 -0.4936010E-06  0.6502154E+01  0.1833950E+01 -0.1098483E-06 -0.1019798E-06 -0.9851296E-10 -0.6400575E-10
  0.4000000E+01 -0.1525041E-07  0.4220055E-08  0.3531651E+01  0.7344134E+00  0.1699105E-04  0.2779998E-05  0.6643206E+01  0.2179272E+01 -0.1885928E-06  0.2235174E-07 -0.1003500E-09 -0.7675453E-10
  0.4100000E+01 -0.1300444E-07  0.2910383E-10  0.3545518E+01  0.8144758E+00  0.1084695E-04 -0.2626330E-06  0.6761331E+01  0.2554110E+01  0.2044367E-07  0.1629815E-07 -0.1006301E-09 -0.8682924E-10
  0.4200000E+01  0.1153066E-07 -0.1103035E-07  0.3549892E+01  0.8985318E+00 -0.5410541E-05  0.1148321E-04  0.7103136E+01  0.3119355E+01  0.2133172E-06 -0.1057051E-06 -0.1029837E-09 -0.1004323E-09
  0.4300000E+01  0.4207195E-07  0.0000000E+00  0.3562690E+01  0.9941596E+00 -0.1262267E-04  0.7098541E-05  0.7413276E+01  0.3787224E+01 -0.1420808E-06  0.1117587E-07 -0.1102478E-09 -0.1182597E-09
  0.4400000E+01 -0.2275390E-08 -0.9429641E-08  0.3536506E+01  0.1058891E+01  0.2621250E-05 -0.1106411E-05  0.7653515E+01  0.4475908E+01 -0.1659447E-06  0.1769513E-07 -0.1114383E-09 -0.1385836E-09
  0.4500000E+01  0.5794896E-08  0.1094304E-07  0.3541629E+01  0.1148857E+01  0.1059307E-04 -0.4492700E-05  0.7857680E+01  0.5215276E+01 -0.9354618E-07  0.9313226E-08 -0.1131463E-09 -0.1620140E-09
  0.4600000E+01 -0.5719536E-08  0.1210719E-07  0.3584078E+01  0.1229120E+01  0.9624207E-05  0.1274049E-05  0.8047913E+01  0.6024211E+01  0.2267568E-07 -0.1126900E-06 -0.1172715E-09 -0.1784577E-09
  0.4700000E+01 -0.3081291E-07 -0.1041917E-07  0.3610629E+01  0.1281506E+01  0.1011535E-04  0.7990748E-05  0.8304850E+01  0.7022952E+01 -0.1727901E-06  0.6798655E-07 -0.1152425E-09 -0.1955069E-09
  0.4800000E+01  0.1673470E-07  0.4889444E-08  0.3492130E+01  0.1243415E+01 -0.6069118E-06  0.1188740E-04  0.8802657E+01  0.8418440E+01  0.3570070E-07 -0.1173466E-06 -0.1216582E-09 -0.2336815E-09
  0.4900000E+01  0.2418588E-07 -0.3026798E-08  0.3386977E+01  0.1181234E+01  0.1311150E-04 -0.8650124E-05  0.9073051E+01  0.9721132E+01  0.1163203E-06  0.6891787E-07 -0.1270321E-09 -0.2648115E-09
  0.5000000E+01 -0.1615845E-07 -0.3492460E-08  0.3272185E+01  0.1030581E+01 -0.3248453E-06  0.4034489E-05  0.9296535E+01  0.1104241E+02 -0.1728535E-06 -0.1676381E-07 -0.1273820E-09 -0.2883415E-09
Zone t="Motion of body    1 in DoF   3",I=    21,F=POINT
  0.3000000E+01 -0.7624676E-04 -0.8279458E-04  0.5649015E-05 -0.2376037E-06  0.1643440E+02  0.2727643E+01  0.2235174E-06 -0.4012138E-05  0.2499421E-04 -0.1287460E-04 -0.1628327E-13  0.9769963E-14
  0.3100000E+01 -0.1204915E-03 -0.3610738E-04 -0.2950490E-05 -0.1008622E-05  0.1621532E+02  0.2210607E+01 -0.6369045E-06 -0.6977469E-05  0.1111338E-03 -0.8198619E-04  0.2721837E-13 -0.1332268E-14
  0.3200000E+01 -0.1597905E-03 -0.5576201E-04 -0.4943868E-05  0.2968591E-07  0.1633265E+02  0.1263151E+01  0.1154840E-05  0.1618639E-05  0.1689419E-03 -0.1234710E-03 -0.3219647E-13 -0.7549517E-14
  0.3300000E+01 -0.8532382E-04 -0.2935342E-04  0.2093571E-05  0.5727634E-06  0.1632640E+02  0.3084606E+00  0.1239506E-05 -0.1599081E-04  0.7499348E-04 -0.1091063E-03  0.4844610E-14 -0.1243450E-13
  0.3400000E+01 -0.7416834E-04 -0.2465025E-04  0.3853347E-06 -0.1665903E-06  0.1628290E+02 -0.7167755E+00  0.2892578E-06  0.3393739E-05  0.8810969E-04 -0.6651878E-04 -0.2455552E-13  0.4884981E-14
  0.3500000E+01  0.1132488E-04 -0.8300878E-04 -0.9858715E-06 -0.2256362E-05  0.1617760E+02 -0.1759519E+01  0.9621892E-06 -0.4533678E-05 -0.6410054E-04  0.1291335E-03 -0.1141944E-13 -0.1421085E-13
  0.3600000E+01  0.2005759E-04 -0.7052720E-04 -0.4506049E-05  0.1624809E-05  0.1617260E+02 -0.3062228E+01  0.4718701E-06 -0.1114979E-04  0.1655685E-06  0.3623962E-04  0.1011537E-13 -0.1243450E-13
  0.3700000E+01  0.2650393E-04 -0.1058429E-03  0.1737609E-05  0.7080380E-06  0.1623359E+02 -0.4618620E+01 -0.1488102E-05 -0.1408160E-05 -0.5973352E-04  0.9793043E-04  0.1368275E-13  0.2575717E-13
  0.3800000E+01  0.5720281E-05  0.1678616E-04 -0.3180038E-05 -0.7078052E-06  0.1630407E+02 -0.6339344E+01 -0.1186211E-05 -0.3885478E-05  0.1508939E-04 -0.1485348E-03 -0.2594416E-13 -0.1509903E-13
  0.3900000E+01 -0.1800079E-04  0.8080155E-05 -0.8144297E-06 -0.2935994E-06  0.1629906E+02 -0.8033417E+01  0.4527660E-06  0.3404915E-05  0.4471877E-04 -0.1122952E-03  0.2482345E-13 -0.3552714E-14
  0.4000000E+01 -0.3017485E-06 -0.4822388E-04  0.4662434E-06  0.1391163E-05  0.1629075E+02 -0.9828210E+01 -0.1018867E-05  0.2533197E-06  0.1662970E-04 -0.3808737E-04  0.1953993E-13 -0.1776357E-14
  0.4100000E+01  0.1685558E-04 -0.9755045E-04 -0.9613067E-06  0.1534354E-06  0.1623701E+02 -0.1158093E+02 -0.1562805E-06  0.3997236E-05 -0.2820317E-04  0.1485348E-03 -0.1516402E-14 -0.1776357E-14
  0.4200000E+01 -0.3434540E-04  0.8650124E-05  0.7576975E-06 -0.1638196E-05  0.1638291E+02 -0.1407045E+02  0.8958436E-06  0.5442649E-05 -0.4739989E-05 -0.7688999E-05 -0.1712916E-13 -0.1776357E-14
  0.4300000E+01 -0.4838632E-04 -0.1827851E-03  0.1095874E-05 -0.7248018E-06  0.1650392E+02 -0.1663038E+02  0.3638656E-07  0.5420297E-05 -0.2639238E-04  0.1942515E-03  0.3511403E-14  0.1154632E-13
  0.4400000E+01 -0.3803606E-04 -0.1049228E-03  0.9713800E-06 -0.3576279E-06  0.1661853E+02 -0.1935727E+02  0.2099709E-06  0.7085502E-05  0.1227314E-04 -0.4589558E-04 -0.3310483E-13  0.6217249E-14
  0.4500000E+01 -0.1016011E-04 -0.1393855E-03  0.1211806E-05 -0.6430782E-06  0.1665319E+02 -0.2191688E+02 -0.1380841E-05 -0.6679446E-05 -0.6458494E-04 -0.2312660E-04  0.2546111E-13  0.6217249E-14
  0.4600000E+01 -0.6305459E-04 -0.9219348E-04 -0.5283737E-06  0.6123446E-07  0.1672360E+02 -0.2474583E+02  0.1057659E-05  0.5178154E-06  0.1062518E-05  0.3796816E-04 -0.9074867E-14  0.3552714E-14
  0.4700000E+01 -0.4300650E-04 -0.9211525E-04 -0.5259496E-06 -0.8635689E-06  0.1677853E+02 -0.2749964E+02 -0.9146777E-06 -0.2007931E-05 -0.1950467E-04 -0.1335144E-04  0.1322819E-14 -0.8881784E-15
  0.4800000E+01 -0.3423697E-04 -0.1328774E-03  0.1371760E-06 -0.2121087E-06  0.1700128E+02 -0.3125740E+02  0.7248794E-06 -0.8419156E-05 -0.3991028E-04  0.1487136E-03  0.5736152E-14 -0.6217249E-14
  0.4900000E+01 -0.7649010E-05 -0.9536743E-04  0.1587050E-07  0.3632158E-07  0.1714142E+02 -0.3478802E+02  0.4105422E-07  0.1233071E-05 -0.1763811E-04  0.5865097E-04  0.1812609E-14 -0.1776357E-14
  0.5000000E+01  0.6174892E-04  0.4108250E-04  0.2938695E-05 -0.6053597E-08  0.1730441E+02 -0.3876974E+02  0.1430512E-06 -0.2086163E-06 -0.9059906E-06  0.1831651E-03 -0.4796164E-14  0.0000000E+00
Zone t="Motion of body    1 in DoF   4",I=    21,F=POINT
  0.3000000E+01 -0.7450581E-08 -0.1582521E-09 -0.2001753E+01 -0.5526881E-01 -0.6599973E-06  0.3095483E-06  0.1554697E+01 -0.8546913E-01 -0.5774200E-07  0.8731149E-10  0.2259697E-10  0.3947270E-11
  0.3100000E+01  0.1059004E-07 -0.5093170E-09 -0.2005116E+01 -0.6610422E-01 -0.1294238E-05 -0.2982561E-06  0.1517719E+01 -0.1080423E+00  0.2072944E-07 -0.3841706E-08  0.2337453E-10  0.4933573E-11
  0.3200000E+01 -0.5657057E-08  0.8913048E-09 -0.2018540E+01 -0.7861684E-01 -0.1493027E-05  0.2637971E-06  0.1479344E+01 -0.1371880E+00  0.4860340E-07 -0.3870809E-08  0.2407878E-10  0.5776239E-11
  0.3300000E+01  0.4533142E-08 -0.1717126E-08 -0.2025639E+01 -0.9248679E-01 -0.2468852E-05  0.7837079E-06  0.1438757E+01 -0.1723583E+00 -0.2398861E-07  0.4889444E-08  0.2424516E-10  0.7126887E-11
  0.3400000E+01 -0.2198195E-07  0.5238689E-09 -0.2018083E+01 -0.1093619E+00  0.9258442E-06 -0.2948800E-06  0.1401633E+01 -0.2153034E+00 -0.5697503E-07 -0.4773028E-08  0.2563453E-10  0.9014615E-11
  0.3500000E+01  0.1230676E-08  0.9968062E-09 -0.2014008E+01 -0.1299450E+00 -0.1110137E-05 -0.2488960E-06  0.1358861E+01 -0.2643646E+00  0.2155346E-07  0.5704351E-08  0.2563661E-10  0.1038986E-10
  0.3600000E+01 -0.1381624E-07 -0.4329195E-09 -0.2028628E+01 -0.1498681E+00 -0.3035077E-05  0.1597218E-06  0.1303126E+01 -0.3253598E+00 -0.2224826E-07  0.5529728E-08  0.2606981E-10  0.1242030E-10
  0.3700000E+01 -0.4302647E-08  0.2328306E-09 -0.2035141E+01 -0.1722137E+00  0.2008636E-05  0.6649643E-06  0.1259214E+01 -0.3968036E+00  0.4656613E-07 -0.2130400E-07  0.2716373E-10  0.1478757E-10
  0.3800000E+01  0.2070201E-07 -0.1076842E-08 -0.2042072E+01 -0.1908935E+00  0.5759495E-05 -0.1005828E-06  0.1210928E+01 -0.4848029E+00 -0.1151899E-07 -0.2910383E-08  0.2757722E-10  0.1795650E-10
  0.3900000E+01 -0.1643247E-07 -0.6912160E-09 -0.2040582E+01 -0.2104413E+00 -0.3479803E-05  0.5001202E-06  0.1156715E+01 -0.5843024E+00  0.1552204E-07  0.5820766E-08  0.2870593E-10  0.2047517E-10
  0.4000000E+01 -0.9807991E-08 -0.9094947E-09 -0.2041153E+01 -0.2352841E+00 -0.2915040E-06  0.7976778E-06  0.1098380E+01 -0.6953005E+00  0.7380731E-07  0.1280569E-07  0.2901972E-10  0.2400168E-10
  0.4100000E+01  0.3417216E-07  0.8585630E-09 -0.2040287E+01 -0.2605096E+00 -0.4173234E-05 -0.1007225E-05  0.1031924E+01 -0.8216698E+00 -0.5746942E-07 -0.2444722E-07  0.3007746E-10  0.2762240E-10
  0.4200000E+01 -0.6929484E-10  0.2793968E-08 -0.2047265E+01 -0.2868658E+00  0.1146857E-05 -0.5159527E-06  0.9574376E+00 -0.9950152E+00  0.3326152E-08 -0.1653098E-07  0.3116840E-10  0.3293704E-10
  0.4300000E+01 -0.1461960E-08 -0.5966285E-09 -0.2043716E+01 -0.3129671E+00 -0.3118847E-07  0.2034940E-06  0.8946661E+00 -0.1183479E+01 -0.2728992E-07 -0.2537854E-07  0.3150071E-10  0.3737988E-10
  0.4400000E+01 -0.1799146E-07 -0.8731149E-09 -0.2038809E+01 -0.3339566E+00 -0.1722100E-05  0.5394220E-05  0.8253165E+00 -0.1391400E+01  0.9313226E-08  0.6984919E-09  0.3249089E-10  0.4311214E-10
  0.4500000E+01 -0.1941549E-07  0.4059984E-08 -0.2036839E+01 -0.3541150E+00 -0.1914799E-05 -0.8754432E-06  0.7499917E+00 -0.1619461E+01  0.7864502E-07  0.2095476E-08  0.3308884E-10  0.4821997E-10
  0.4600000E+01  0.1119865E-07 -0.1309672E-09 -0.2038856E+01 -0.3768328E+00  0.2640097E-06  0.3986061E-06  0.6767275E+00 -0.1867664E+01  0.4049229E-07 -0.2095476E-08  0.3374804E-10  0.5561409E-10
  0.4700000E+01 -0.1541884E-07  0.2968591E-08 -0.2034147E+01 -0.3964197E+00 -0.8124304E-06 -0.5001202E-05  0.6062313E+00 -0.2154869E+01  0.6261659E-07 -0.3445894E-07  0.3407043E-10  0.6123320E-10
  0.4800000E+01 -0.9058567E-08 -0.4656613E-09 -0.2035419E+01 -0.3824199E+00 -0.4299606E-06  0.3292225E-05  0.5007237E+00 -0.2562186E+01  0.3492459E-08  0.6752089E-07  0.3474522E-10  0.7042426E-10
  0.4900000E+01  0.6557271E-08  0.3085006E-08 -0.2025072E+01 -0.3594820E+00 -0.1798783E-05 -0.3249384E-05  0.4175356E+00 -0.2943000E+01  0.7982765E-08  0.2514571E-07  0.3531463E-10  0.7942105E-10
  0.5000000E+01 -0.6938353E-08  0.9022187E-09 -0.2016342E+01 -0.3183547E+00  0.1046807E-05 -0.2495944E-05  0.3312624E+00 -0.3338874E+01 -0.1490116E-08 -0.1862645E-08  0.3585056E-10  0.8608253E-10
Zone t="Motion of body    1 in DoF   5",I=    21,F=POINT
  0.3000000E+01  0.2001752E+01  0.5526672E-01 -0.1463923E-07  0.9276846E-10 -0.5213420E-04  0.7306412E-04  0.1179675E-07  0.3114110E-08  0.1554684E+01 -0.8546436E-01  0.3959796E-14  0.1526557E-15
  0.3100000E+01  0.2005129E+01  0.6610235E-01 -0.1809132E-07 -0.3528839E-09  0.5739351E-04 -0.7634982E-05 -0.3605120E-08  0.4190952E-08  0.1517704E+01 -0.1080322E+00 -0.7879002E-14 -0.6938894E-17
  0.3200000E+01  0.2018524E+01  0.7861799E-01  0.1428816E-07  0.7839844E-09  0.3591180E-04 -0.6210059E-04  0.3055902E-07  0.3783498E-08  0.1479331E+01 -0.1371679E+00  0.6383782E-14 -0.2775558E-15
  0.3300000E+01  0.2025673E+01  0.9248725E-01  0.7699287E-08  0.4001777E-10  0.2208984E-04  0.1172163E-04  0.2511749E-07 -0.4074536E-08  0.1438737E+01 -0.1723570E+00  0.7401487E-15  0.4996004E-15
  0.3400000E+01  0.2018108E+01  0.1093480E+00 -0.1230921E-07 -0.1964509E-09 -0.9545509E-04  0.6840937E-04 -0.1917429E-07  0.5471520E-08  0.1401595E+01 -0.2153033E+00 -0.2644943E-14  0.1526557E-15
  0.3500000E+01  0.2014050E+01  0.1299507E+00 -0.1431908E-07 -0.3237801E-09 -0.2724784E-06  0.2859905E-04  0.2927014E-07 -0.2502929E-08  0.1358806E+01 -0.2643241E+00  0.5709718E-15  0.2775558E-16
  0.3600000E+01  0.2028681E+01  0.1498862E+00 -0.2255547E-08  0.1222361E-08  0.8626117E-05 -0.1115352E-04 -0.1086543E-07  0.5529728E-08  0.1303060E+01 -0.3253778E+00  0.6106227E-14  0.3747003E-15
  0.3700000E+01  0.2035186E+01  0.1722283E+00 -0.2295270E-07  0.4365575E-09  0.7862980E-04  0.6124005E-04 -0.1837474E-07  0.4889444E-08  0.1259162E+01 -0.3968324E+00 -0.1530307E-14 -0.7216450E-15
  0.3800000E+01  0.2042091E+01  0.1908751E+00  0.3262693E-08  0.1200533E-08 -0.9510078E-04 -0.4338473E-04  0.4583087E-07  0.1199078E-07  0.1210850E+01 -0.4848203E+00  0.1986715E-14  0.1665335E-15
  0.3900000E+01  0.2040589E+01  0.2104150E+00  0.7738634E-08  0.1862645E-08 -0.6382282E-04  0.7666647E-05 -0.7880422E-08 -0.8498318E-08  0.1156721E+01 -0.5842875E+00 -0.2846726E-14  0.4718448E-15
  0.4000000E+01  0.2041203E+01  0.2352607E+00 -0.9749783E-08  0.1724402E-08 -0.1312792E-04  0.6000698E-04 -0.9336509E-07 -0.6402843E-08  0.1098333E+01 -0.6952903E+00  0.2609024E-14 -0.4163336E-15
  0.4100000E+01  0.2040290E+01  0.2604701E+00 -0.1561669E-08  0.1826265E-08  0.3778353E-04  0.1133159E-03 -0.2294234E-07  0.1303852E-07  0.1031920E+01 -0.8216379E+00 -0.9910772E-14  0.6938894E-15
  0.4200000E+01  0.2047286E+01  0.2868464E+00 -0.2103791E-07  0.1193257E-08 -0.2724784E-05 -0.9629875E-04  0.1419158E-07  0.3259629E-08  0.9573931E+00 -0.9950528E+00 -0.6872809E-15  0.2775558E-15
  0.4300000E+01  0.2043761E+01  0.3129714E+00 -0.9611032E-08  0.2619345E-09  0.5114910E-04  0.1749024E-03  0.6367647E-07  0.1047738E-07  0.8945703E+00 -0.1183622E+01  0.7797380E-14 -0.1110223E-15
  0.4400000E+01  0.2038834E+01  0.3339382E+00  0.2804551E-08 -0.3637979E-09 -0.7030639E-05 -0.1119822E-03 -0.1185320E-07  0.1955777E-07  0.8252296E+00 -0.1391511E+01  0.6812732E-14 -0.1110223E-15
  0.4500000E+01  0.2036871E+01  0.3541340E+00 -0.4979989E-08 -0.1527951E-08  0.3907416E-04 -0.1709163E-04  0.1283156E-07 -0.2910383E-07  0.7498900E+00 -0.1619654E+01 -0.1430954E-14 -0.3885781E-15
  0.4600000E+01  0.2038863E+01  0.3768350E+00  0.2983775E-07  0.1789886E-08 -0.3962413E-04  0.1305044E-03 -0.1174276E-07 -0.5774200E-07  0.6766775E+00 -0.1867801E+01  0.1047471E-13  0.2775558E-15
  0.4700000E+01  0.2034149E+01  0.3964169E+00 -0.3332698E-07  0.2735760E-08 -0.4928163E-04 -0.1225024E-03 -0.6103135E-07 -0.4190952E-07  0.6061961E+00 -0.2154957E+01 -0.1370063E-14  0.4440892E-15
  0.4800000E+01  0.2035425E+01  0.3824233E+00  0.1364242E-07  0.2590241E-08  0.2997617E-04  0.3889203E-04 -0.6674478E-07  0.1117587E-07  0.5006964E+00 -0.2562331E+01 -0.6059967E-14 -0.1110223E-15
  0.4900000E+01  0.2025054E+01  0.3593960E+00 -0.2126362E-08 -0.4249159E-08 -0.2151849E-04 -0.9803474E-04 -0.1824632E-07  0.5355105E-07  0.4175576E+00 -0.2942892E+01 -0.3308011E-14 -0.1332268E-14
  0.5000000E+01  0.2016330E+01  0.3183042E+00 -0.3608875E-08 -0.3492460E-09  0.1716614E-04  0.1139641E-03  0.3613532E-07 -0.5913898E-07  0.3312660E+00 -0.3338804E+01 -0.1243450E-14 -0.1110223E-15
Zone t="Motion of body    1 in DoF   6",I=    21,F=POINT
  0.3000000E+01  0.1503427E-16  0.2594038E-19 -0.4917212E-11 -0.1016103E-11 -0.7262709E-15  0.4723056E-17 -0.1226444E-10 -0.1548718E-11  0.8049117E-15  0.2464866E-18  0.2013277E-13  0.1371178E-20
  0.3100000E+01 -0.1099031E-14  0.3006967E-19 -0.4899364E-11 -0.1224455E-11  0.3626132E-15  0.4350361E-17 -0.1261376E-10 -0.1953948E-11  0.3088927E-15  0.1694066E-20  0.2011835E-13  0.4517345E-20
  0.3200000E+01 -0.1951564E-16  0.6776264E-19 -0.4301909E-11 -0.1393892E-11 -0.1517883E-15 -0.1084202E-17 -0.1333764E-10 -0.2488055E-11  0.2027458E-15  0.6268044E-19  0.2010458E-13  0.8272627E-20
  0.3300000E+01 -0.5467007E-15  0.8237395E-19 -0.5158730E-11 -0.1689357E-11 -0.5046468E-16 -0.4580754E-17 -0.1387758E-10 -0.3122495E-11 -0.1219563E-15 -0.8504211E-18  0.2010599E-13  0.9852682E-20
  0.3400000E+01 -0.2979642E-15  0.1482308E-20 -0.4285464E-11 -0.1742768E-11  0.5000085E-15  0.1273938E-16 -0.1390540E-10 -0.3806633E-11  0.3346996E-15 -0.2307318E-17  0.2011258E-13  0.1247762E-19
  0.3500000E+01 -0.8881784E-15 -0.1094790E-18 -0.5292483E-11 -0.2218018E-11  0.8128419E-16  0.8375462E-17 -0.1429513E-10 -0.4678013E-11  0.2924248E-15 -0.7318365E-18  0.2014306E-13 -0.1589082E-20
  0.3600000E+01  0.1580526E-14 -0.3875176E-19 -0.5074693E-11 -0.2609943E-11  0.5589664E-16  0.1361351E-16 -0.1493026E-10 -0.5717236E-11 -0.1069746E-15  0.1284102E-17  0.2013959E-13  0.1154598E-19
  0.3700000E+01 -0.7782813E-15  0.3028143E-19 -0.5198678E-11 -0.3260259E-11  0.3000603E-16  0.1910906E-16 -0.1561647E-10 -0.7014524E-11  0.3938291E-16 -0.5624299E-18  0.2013068E-13  0.8805223E-20
  0.3800000E+01  0.4966787E-15  0.1651714E-19 -0.4322656E-11 -0.3436011E-11  0.3286845E-16 -0.1367450E-16 -0.1572309E-10 -0.8411497E-11 -0.9677931E-16  0.6234162E-17  0.2012024E-13  0.1281963E-19
  0.3900000E+01 -0.5995916E-15 -0.3108611E-18 -0.6377553E-11 -0.4187164E-11 -0.2704389E-15 -0.3740497E-16 -0.1703887E-10 -0.1029634E-10  0.7259150E-15  0.3184844E-17  0.2010380E-13  0.2232209E-19
  0.4000000E+01 -0.1056447E-14  0.2659683E-18 -0.4319837E-11 -0.4332130E-11 -0.3504141E-15 -0.4098284E-16 -0.1731489E-10 -0.1212509E-10  0.1301043E-16 -0.1660185E-17  0.2011500E-13  0.9151643E-19
  0.4100000E+01 -0.6261929E-16 -0.8300923E-19 -0.6478839E-11 -0.5151041E-11  0.4738757E-15  0.4824700E-17 -0.1788873E-10 -0.1412706E-10 -0.1136455E-14  0.6830474E-17  0.2012237E-13  0.6168513E-19
  0.4200000E+01  0.4592887E-15  0.1168905E-18 -0.4911616E-11 -0.4950321E-11 -0.9912706E-16  0.5654114E-16 -0.1826086E-10 -0.1663183E-10 -0.1866893E-14 -0.2737610E-17  0.2012137E-13  0.1972095E-18
  0.4300000E+01 -0.4502213E-15  0.1524659E-18 -0.4312993E-11 -0.4422193E-11  0.9682177E-16 -0.2715926E-16 -0.1926524E-10 -0.1982102E-10  0.2073600E-15 -0.8782038E-17  0.2011605E-13  0.1476516E-18
  0.4400000E+01 -0.3500987E-15  0.2947675E-18 -0.6074002E-11 -0.7283989E-11 -0.1892426E-15 -0.5746272E-16 -0.2019652E-10 -0.2347663E-10 -0.5937485E-15 -0.2331035E-17  0.2012183E-13  0.6316391E-19
  0.4500000E+01  0.1339978E-14  0.3566009E-18 -0.4475066E-11 -0.5705588E-11  0.1141063E-15  0.1409463E-17 -0.2004155E-10 -0.2638257E-10  0.2220446E-15  0.5250249E-16  0.2012701E-13  0.1437779E-18
  0.4600000E+01  0.2685050E-15 -0.1626303E-18 -0.5462515E-11 -0.8378308E-11 -0.1055919E-15  0.1680513E-16 -0.1998014E-10 -0.2992162E-10  0.5505862E-16  0.2574980E-17  0.2013769E-13  0.6597816E-19
  0.4700000E+01 -0.3631847E-15  0.7894347E-18 -0.3699349E-11 -0.7969544E-11 -0.1505888E-15  0.9215718E-17 -0.2009006E-10 -0.3403827E-10 -0.2278762E-14  0.5353248E-16  0.2015032E-13  0.1152362E-18
  0.4800000E+01  0.9179578E-15  0.7623297E-18 -0.2884654E-11 -0.5705188E-11 -0.1474515E-15 -0.7209944E-16 -0.2098501E-10 -0.3929078E-10  0.1572816E-14 -0.2076247E-16  0.2013301E-13 -0.1779955E-19
  0.4900000E+01 -0.2407371E-15 -0.8402567E-18 -0.2603884E-11 -0.5322855E-11  0.5381183E-16 -0.1721713E-15 -0.2223985E-10 -0.4523485E-10  0.1423181E-15  0.4152494E-16  0.2011047E-13 -0.1009976E-18
  0.5000000E+01  0.4926615E-15 -0.8402567E-18 -0.1120045E-11 -0.3200498E-11 -0.6744605E-15  0.5312591E-16 -0.2216394E-10 -0.5010386E-10 -0.8840151E-15 -0.6570265E-16  0.2010308E-13  0.7739363E-18
