VARIABLES="w (rad/s)"
"abs(F   1   1)" "angle(F   1   1)"
"abs(F   1   2)" "angle(F   1   2)"
"abs(F   1   3)" "angle(F   1   3)"
"abs(F   1   4)" "angle(F   1   4)"
"abs(F   1   5)" "angle(F   1   5)"
"abs(F   1   6)" "angle(F   1   6)"
Zone t="Diffraction force - beta =   0.000 deg",I=    21,F=POINT
  0.3000000E+01  0.2031004E+03 -0.1569136E+01  0.8787765E-03  0.1540013E+01  0.4039438E+04 -0.1716438E+01  0.4869742E-03 -0.1717341E+01  0.1531622E+03  0.1572172E+01  0.7111110E-12 -0.1610775E+01
  0.3100000E+01  0.2295577E+03 -0.1568463E+01  0.9468889E-04 -0.1495848E+01  0.3882808E+04 -0.1661389E+01  0.3918206E-03  0.1648152E+01  0.1738434E+03  0.1572911E+01  0.2998524E-11  0.1566057E+01
  0.3200000E+01  0.2646813E+03 -0.1567813E+01  0.5939179E-04 -0.2149835E+01  0.3760117E+04 -0.1619941E+01  0.8669930E-03  0.1738155E+01  0.2003095E+03  0.1573395E+01  0.1182152E-11  0.1096396E+01
  0.3300000E+01  0.3020058E+03 -0.1566571E+01  0.2775041E-03  0.1663001E+01  0.3619898E+04 -0.1594208E+01  0.1543678E-03 -0.8071739E+00  0.2292979E+03  0.1574461E+01  0.8725511E-12 -0.5292468E+00
  0.3400000E+01  0.3429838E+03 -0.1564733E+01  0.2350878E-03 -0.1672332E+01  0.3488530E+04 -0.1545641E+01  0.1633810E-04  0.1621893E+01  0.2597628E+03  0.1576235E+01  0.4900170E-12  0.5155490E+00
  0.3500000E+01  0.3864121E+03 -0.1563144E+01  0.1131000E-03  0.2952624E+00  0.3376578E+04 -0.1533126E+01  0.3370458E-03 -0.7560704E+00  0.2921019E+03  0.1577695E+01  0.6369905E-11 -0.1617663E+01
  0.3600000E+01  0.4345498E+03 -0.1561602E+01  0.1276377E-03 -0.1106941E+01  0.3301790E+04 -0.1531585E+01  0.3159179E-03  0.1623460E+01  0.3293359E+03  0.1579224E+01  0.7438512E-11 -0.1782524E+01
  0.3700000E+01  0.4879395E+03 -0.1559221E+01  0.2889858E-03  0.1809528E+01  0.3196101E+04 -0.1527232E+01  0.5145951E-03 -0.2469524E+01  0.3719814E+03  0.1581421E+01  0.7985964E-12  0.1677769E+01
  0.3800000E+01  0.5507034E+03 -0.1556851E+01  0.1844197E-03 -0.1062910E+01  0.3154965E+04 -0.1535806E+01  0.1752071E-03  0.3053154E+01  0.4203395E+03  0.1583472E+01  0.3731832E-11  0.1433275E+01
  0.3900000E+01  0.6171356E+03 -0.1552346E+01  0.2039759E-03  0.1049941E+01  0.3089654E+04 -0.1533491E+01  0.7560381E-03  0.1623090E+01  0.4670882E+03  0.1587892E+01  0.1272756E-11  0.2021336E+01
  0.4000000E+01  0.6944078E+03 -0.1548523E+01  0.6834800E-04  0.1270068E+00  0.3064505E+04 -0.1548500E+01  0.2835702E-03 -0.2998654E+01  0.5229445E+03  0.1591650E+01  0.2075911E-11 -0.1349946E+01
  0.4100000E+01  0.7735724E+03 -0.1543036E+01  0.6232409E-04 -0.3052236E+01  0.3041403E+04 -0.1568282E+01  0.3868352E-03  0.1528180E+01  0.5833995E+03  0.1596592E+01  0.1141944E-11 -0.1683032E+01
  0.4200000E+01  0.8929969E+03 -0.1535705E+01  0.6024796E-04 -0.2788456E+00  0.2996031E+04 -0.1550997E+01  0.4696057E-03 -0.1756990E+01  0.6731721E+03  0.1603024E+01  0.8852934E-11 -0.1548321E+01
  0.4300000E+01  0.1003441E+04 -0.1526087E+01  0.6250669E-03  0.1822256E+01  0.2996184E+04 -0.1549262E+01  0.5455420E-03 -0.1765687E+01  0.7509434E+03  0.1612680E+01  0.8702916E-12  0.1557530E+00
  0.4400000E+01  0.1127201E+04 -0.1520077E+01  0.3144324E-03  0.2061138E+01  0.2945539E+04 -0.1559734E+01  0.3654176E-03  0.1561172E+01  0.8367617E+03  0.1618572E+01  0.3691709E-11 -0.1770362E+01
  0.4500000E+01  0.1246882E+04 -0.1506325E+01  0.2444889E-03  0.1305421E+01  0.2935632E+04 -0.1565317E+01  0.1117457E-03 -0.3112702E+01  0.9203762E+03  0.1632230E+01  0.1240449E-10 -0.1730719E+01
  0.4600000E+01  0.1380916E+04 -0.1493227E+01  0.1982085E-03 -0.2317561E+01  0.2918003E+04 -0.1573161E+01  0.3886853E-03  0.1589123E+01  0.1015086E+04  0.1645290E+01  0.1449942E-11  0.3117088E+01
  0.4700000E+01  0.1514851E+04 -0.1483152E+01  0.1555534E-03  0.1574598E+01  0.2921338E+04 -0.1590679E+01  0.1704641E-03  0.1364255E+01  0.1118344E+04  0.1654473E+01  0.2809943E-11  0.1351579E+01
  0.4800000E+01  0.1713970E+04 -0.1492604E+01  0.3132656E-03 -0.1677842E+01  0.2963147E+04 -0.1603854E+01  0.1221086E-03 -0.1268197E+01  0.1261576E+04  0.1645729E+01  0.6139237E-11 -0.1577741E+01
  0.4900000E+01  0.1923060E+04 -0.1474212E+01  0.1922398E-03 -0.1537285E+01  0.2980957E+04 -0.1602883E+01  0.6260042E-03  0.1627146E+01  0.1405088E+04  0.1663231E+01  0.6233420E-11  0.1383908E+01
  0.5000000E+01  0.2154453E+04 -0.1444516E+01  0.3145666E-03  0.1346498E+01  0.3010541E+04 -0.1592767E+01  0.9964475E-04 -0.1974687E+01  0.1562091E+04  0.1693396E+01  0.5772931E-11  0.1731493E+01
