VARIABLES="w (rad/s)"
"abs(F   1   1)" "angle(F   1   1)"
"abs(F   1   2)" "angle(F   1   2)"
"abs(F   1   3)" "angle(F   1   3)"
"abs(F   1   4)" "angle(F   1   4)"
"abs(F   1   5)" "angle(F   1   5)"
"abs(F   1   6)" "angle(F   1   6)"
Zone t="Diffraction force - beta =   0.000 deg",I=    21,F=POINT
  0.3000000E+01  0.2409966E+03 -0.1569397E+01  0.8806635E-03  0.1487779E+01  0.4008602E+04 -0.1647965E+01  0.4816657E-03 -0.1610158E+01  0.1575107E+03  0.1572134E+01  0.1004156E-11 -0.1100820E+01
  0.3100000E+01  0.2698325E+03 -0.1568811E+01  0.1076230E-03 -0.1079248E+01  0.3867643E+04 -0.1590578E+01  0.4584462E-03  0.2124121E+01  0.1784800E+03  0.1572856E+01  0.3153945E-11  0.1338932E+01
  0.3200000E+01  0.3073871E+03 -0.1568227E+01  0.6833637E-04 -0.2335696E+01  0.3756598E+04 -0.1547485E+01  0.9023511E-03  0.1899075E+01  0.2052422E+03  0.1573333E+01  0.1212116E-11  0.7397863E+00
  0.3300000E+01  0.3471926E+03 -0.1567121E+01  0.2833071E-03  0.1792137E+01  0.3623631E+04 -0.1519721E+01  0.1728901E-03 -0.2413942E+01  0.2345354E+03  0.1574379E+01  0.5155721E-12 -0.1051650E+01
  0.3400000E+01  0.3906989E+03 -0.1565473E+01  0.2404396E-03 -0.1804036E+01  0.3505437E+04 -0.1469385E+01  0.6583059E-04  0.2866744E+01  0.2653123E+03  0.1576121E+01  0.1003451E-11  0.2140607E+00
  0.3500000E+01  0.4367001E+03 -0.1564025E+01  0.1455238E-03  0.2275514E+00  0.3396837E+04 -0.1455239E+01  0.2432177E-03 -0.1262802E+01  0.2979712E+03  0.1577559E+01  0.6585034E-11 -0.1594537E+01
  0.3600000E+01  0.4874529E+03 -0.1562600E+01  0.1416884E-03 -0.9379991E+00  0.3322367E+04 -0.1452767E+01  0.3287229E-03  0.1875581E+01  0.3355325E+03  0.1579069E+01  0.7487450E-11 -0.1851573E+01
  0.3700000E+01  0.5434965E+03 -0.1560404E+01  0.2808507E-03  0.1587944E+01  0.3217807E+04 -0.1446716E+01  0.4974385E-03 -0.2452998E+01  0.3785120E+03  0.1581238E+01  0.9930088E-12  0.2261183E+01
  0.3800000E+01  0.6089505E+03 -0.1558185E+01  0.1628263E-03 -0.1405314E+01  0.3174278E+04 -0.1455037E+01  0.1560623E-03  0.3029981E+01  0.4272111E+03  0.1583268E+01  0.3610463E-11  0.1464323E+01
  0.3900000E+01  0.6781041E+03 -0.1554005E+01  0.2793640E-03  0.6860453E+00  0.3109437E+04 -0.1451953E+01  0.7570025E-03  0.1630357E+01  0.4743069E+03  0.1587632E+01  0.1335822E-11  0.2215627E+01
  0.4000000E+01  0.7581279E+03 -0.1550395E+01  0.2297314E-04  0.3776514E+00  0.3080294E+04 -0.1467085E+01  0.2687012E-03 -0.2983726E+01  0.5305163E+03  0.1591352E+01  0.1805210E-11 -0.1225472E+01
  0.4100000E+01  0.8400679E+03 -0.1545234E+01  0.7745311E-04 -0.3062248E+01  0.3052091E+04 -0.1487048E+01  0.3935027E-03  0.1651999E+01  0.5913301E+03  0.1596246E+01  0.1229998E-11 -0.1698230E+01
  0.4200000E+01  0.9622860E+03 -0.1538233E+01  0.8909836E-04 -0.1783573E+00  0.3010835E+04 -0.1469641E+01  0.4625689E-03 -0.1648833E+01  0.6814664E+03  0.1602632E+01  0.8795463E-11 -0.1671138E+01
  0.4300000E+01  0.1075534E+04 -0.1529086E+01  0.6215816E-03  0.1801564E+01  0.3011106E+04 -0.1468905E+01  0.5360999E-03 -0.1784897E+01  0.7596048E+03  0.1612202E+01  0.9024172E-12 -0.7873883E-02
  0.4400000E+01  0.1202121E+04 -0.1523240E+01  0.3048090E-03  0.2003396E+01  0.2957831E+04 -0.1478929E+01  0.3595006E-03  0.1568723E+01  0.8457955E+03  0.1618061E+01  0.3722610E-11 -0.1891189E+01
  0.4500000E+01  0.1324606E+04 -0.1510113E+01  0.2442539E-03  0.1297957E+01  0.2946369E+04 -0.1485222E+01  0.1242949E-03 -0.3124013E+01  0.9297820E+03  0.1631608E+01  0.1239300E-10 -0.1767574E+01
  0.4600000E+01  0.1461442E+04 -0.1497509E+01  0.2092785E-03 -0.2374009E+01  0.2926718E+04 -0.1493570E+01  0.4066569E-03  0.1825500E+01  0.1024865E+04  0.1644578E+01  0.1918518E-11  0.3134186E+01
  0.4700000E+01  0.1598190E+04 -0.1487733E+01  0.1602409E-03  0.1823636E+01  0.2925794E+04 -0.1512129E+01  0.1804226E-03  0.1159567E+01  0.1128502E+04  0.1653718E+01  0.2849622E-11  0.1230121E+01
  0.4800000E+01  0.1800256E+04 -0.1496359E+01  0.3124953E-03 -0.1527792E+01  0.2964319E+04 -0.1527396E+01  0.1601323E-03 -0.9450649E+00  0.1272129E+04  0.1645106E+01  0.6230297E-11 -0.1686240E+01
  0.4900000E+01  0.2012097E+04 -0.1478498E+01  0.1951214E-03 -0.1369175E+01  0.2982163E+04 -0.1527921E+01  0.6284419E-03  0.1667309E+01  0.1416015E+04  0.1662516E+01  0.6280060E-11  0.1414018E+01
  0.5000000E+01  0.2246081E+04 -0.1449693E+01  0.3199748E-03  0.1285230E+01  0.3013762E+04 -0.1519606E+01  0.1067319E-03 -0.2039252E+01  0.1573374E+04  0.1692512E+01  0.5571784E-11  0.1723785E+01
