VARIABLES="w (rad/s)"
"abs(F   1   1)" "angle(F   1   1)"
"abs(F   1   2)" "angle(F   1   2)"
"abs(F   1   3)" "angle(F   1   3)"
"abs(F   1   4)" "angle(F   1   4)"
"abs(F   1   5)" "angle(F   1   5)"
"abs(F   1   6)" "angle(F   1   6)"
Zone t="FKforce - beta =   0.000",I=    21,F=POINT
  0.3000000E+01  0.3789622E+02 -0.1570796E+01  0.4598518E-04 -0.1586863E-01  0.2771999E+03 -0.7568848E-07  0.5215611E-04  0.8856911E-02  0.4348498E+01  0.1570786E+01  0.5172829E-12 -0.3652014E+00
  0.3100000E+01  0.4027487E+02 -0.1570797E+01  0.4370937E-04 -0.1047266E-01  0.2747694E+03 -0.1492451E-06  0.2106437E-03 -0.3138692E+01  0.4636577E+01  0.1570797E+01  0.7140866E-12  0.9966865E-01
  0.3200000E+01  0.4270600E+02 -0.1570796E+01  0.1482577E-04  0.3114012E+01  0.2722795E+03 -0.2381738E-06  0.1465100E-03 -0.3136711E+01  0.4932789E+01  0.1570798E+01  0.4256738E-12 -0.5833730E+00
  0.3300000E+01  0.4518715E+02 -0.1570796E+01  0.3664575E-04  0.3139674E+01  0.2697362E+03 -0.2474907E-06  0.2358814E-03 -0.3126810E+01  0.5237495E+01  0.1570785E+01  0.4974307E-12 -0.3127308E+01
  0.3400000E+01  0.4771582E+02 -0.1570796E+01  0.3174417E-04 -0.3139950E+01  0.2671376E+03 -0.3355775E-06  0.6254447E-04  0.3116812E+01  0.5549602E+01  0.1570793E+01  0.5549516E-12 -0.5123717E-01
  0.3500000E+01  0.5028935E+02 -0.1570796E+01  0.3356683E-04 -0.2441591E-02  0.2644898E+03  0.1045657E-06  0.1714834E-03 -0.3138464E+01  0.5869443E+01  0.1570802E+01  0.2621315E-12 -0.9978302E+00
  0.3600000E+01  0.5290511E+02 -0.1570796E+01  0.2669004E-04 -0.3873245E-02  0.2617933E+03 -0.2185711E-07  0.8203817E-04 -0.3118341E+01  0.6196794E+01  0.1570807E+01  0.5175269E-12  0.2989987E+01
  0.3700000E+01  0.5556033E+02 -0.1570796E+01  0.6352086E-04  0.3078953E-03  0.2590506E+03 -0.2945137E-07  0.1908540E-04  0.2267988E+00  0.6530927E+01  0.1570797E+01  0.5478557E-12 -0.3089691E+01
  0.3800000E+01  0.5825222E+02 -0.1570796E+01  0.6286938E-04  0.3133015E+01  0.2562622E+03  0.4019197E-06  0.1952450E-04  0.9784605E-01  0.6872147E+01  0.1570805E+01  0.1664855E-12 -0.2446854E+01
  0.3900000E+01  0.6097795E+02 -0.1570796E+01  0.1146570E-03  0.3898889E-03  0.2534330E+03  0.3160939E-06  0.5581872E-05  0.3023860E+01  0.7219769E+01  0.1570803E+01  0.2606830E-12 -0.2837082E+01
  0.4000000E+01  0.6373453E+02 -0.1570797E+01  0.4644357E-04 -0.3137582E+01  0.2505657E+03  0.3197112E-06  0.1542943E-04 -0.1200426E+00  0.7573413E+01  0.1570804E+01  0.3623071E-12  0.1124691E+01
  0.4100000E+01  0.6651910E+02 -0.1570796E+01  0.1514500E-04 -0.3103457E+01  0.2476624E+03 -0.5390985E-07  0.4873605E-04  0.3023912E+01  0.7933257E+01  0.1570797E+01  0.8987734E-13 -0.1892547E+01
  0.4200000E+01  0.6932864E+02 -0.1570796E+01  0.2977425E-04  0.2605874E-01  0.2447265E+03  0.4676279E-07  0.5087362E-04  0.6443965E-02  0.8298501E+01  0.1570805E+01  0.1084596E-11  0.3049747E+01
  0.4300000E+01  0.7216009E+02 -0.1570796E+01  0.1336050E-04 -0.2279622E-01  0.2417581E+03 -0.8994022E-06  0.1403844E-04  0.2199436E+01  0.8668875E+01  0.1570798E+01  0.1483657E-12 -0.1279340E+01
  0.4400000E+01  0.7501034E+02 -0.1570796E+01  0.2029939E-04 -0.3221286E-01  0.2387624E+03  0.2396544E-07  0.6519356E-05 -0.2009909E+01  0.9044026E+01  0.1570797E+01  0.4487121E-12  0.2950408E+01
  0.4500000E+01  0.7787642E+02 -0.1570796E+01  0.1839153E-05 -0.3972451E+00  0.2357406E+03  0.5663616E-06  0.1261976E-04  0.3058844E+01  0.9423415E+01  0.1570798E+01  0.4570729E-12  0.2938100E+01
  0.4600000E+01  0.8075507E+02 -0.1570796E+01  0.1595883E-04  0.3132781E+01  0.2326951E+03 -0.1475419E-06  0.9546436E-04  0.3090060E+01  0.9806283E+01  0.1570799E+01  0.4694424E-12 -0.3096169E+01
  0.4700000E+01  0.8364326E+02 -0.1570796E+01  0.3949575E-04 -0.3131311E+01  0.2296301E+03  0.4070028E-06  0.3719217E-04 -0.3927410E-01  0.1019313E+02  0.1570798E+01  0.3457650E-12 -0.1651487E+00
  0.4800000E+01  0.8653780E+02 -0.1570796E+01  0.4690994E-04 -0.1564513E-01  0.2265482E+03  0.8419174E-07  0.5890474E-04 -0.2265713E+00  0.1058217E+02  0.1570801E+01  0.6768456E-12 -0.3068041E+01
  0.4900000E+01  0.8943556E+02 -0.1570796E+01  0.3264775E-04  0.2950057E-01  0.2234542E+03 -0.4353231E-06  0.2530724E-04  0.3121572E+01  0.1097387E+02  0.1570799E+01  0.1940705E-12  0.2727086E+01
  0.5000000E+01  0.9233338E+02 -0.1570796E+01  0.2017328E-04  0.1634354E-01  0.2203477E+03 -0.9521693E-07  0.9723507E-05 -0.2761655E+01  0.1136726E+02  0.1570791E+01  0.2058429E-12 -0.1199905E+01
