 VARIABLES="Time (s)"
"AddedMass    1" "IRF    1"
"AddedMass    2" "IRF    2"
"AddedMass    3" "IRF    3"
"AddedMass    4" "IRF    4"
"AddedMass    5" "IRF    5"
"AddedMass    6" "IRF    6"
Zone t="DoF    1",I=   100,F=POINT
  0.0000000E+00  0.2674102E+01 -0.5551245E+01 -0.2065954E-08 -0.8698295E-08 -0.6864133E-04  0.3063894E-03  0.4083883E-09  0.8681321E-08 -0.1140491E+00  0.3902063E+01 -0.1720595E-14  0.2453778E-14
  0.1000000E+00  0.2674102E+01 -0.4977090E+01 -0.2065954E-08 -0.8146661E-08 -0.6864133E-04  0.2790151E-03  0.4083883E-09  0.7754144E-08 -0.1140491E+00  0.3498220E+01 -0.1720595E-14  0.2206635E-14
  0.2000000E+00  0.2674102E+01 -0.3376321E+01 -0.2065954E-08 -0.6534884E-08 -0.6864133E-04  0.2020786E-03  0.4083883E-09  0.5184224E-08 -0.1140491E+00  0.2372317E+01 -0.1720595E-14  0.1515758E-14
  0.3000000E+00  0.2674102E+01 -0.1087740E+01 -0.2065954E-08 -0.3998771E-08 -0.6864133E-04  0.9011129E-04  0.4083883E-09  0.1556168E-08 -0.1140491E+00  0.7627344E+00 -0.1720595E-14  0.5223501E-15
  0.4000000E+00  0.2674102E+01  0.1405829E+01 -0.2065954E-08 -0.7813390E-09 -0.6864133E-04 -0.3588289E-04  0.4083883E-09 -0.2310907E-08 -0.1140491E+00 -0.9908202E+00 -0.1720595E-14 -0.5709418E-15
  0.5000000E+00  0.2674102E+01  0.3581426E+01 -0.2065954E-08  0.2757149E-08 -0.6864133E-04 -0.1525572E-03  0.4083883E-09 -0.5556617E-08 -0.1140491E+00 -0.2520423E+01 -0.1720595E-14 -0.1541881E-14
  0.6000000E+00  0.2674102E+01  0.4987938E+01 -0.2065954E-08  0.6149219E-08 -0.6864133E-04 -0.2387678E-03  0.4083883E-09 -0.7480626E-08 -0.1140491E+00 -0.3508736E+01 -0.1720595E-14 -0.2194435E-14
  0.7000000E+00  0.2674102E+01  0.5341818E+01 -0.2065954E-08  0.8862447E-08 -0.6864133E-04 -0.2796166E-03  0.4083883E-09 -0.7703590E-08 -0.1140491E+00 -0.3756357E+01 -0.1720595E-14 -0.2398986E-14
  0.8000000E+00  0.2674102E+01  0.4585847E+01 -0.2065954E-08  0.1037711E-07 -0.6864133E-04 -0.2691857E-03  0.4083883E-09 -0.6249369E-08 -0.1140491E+00 -0.3223166E+01 -0.1720595E-14 -0.2118600E-14
  0.9000000E+00  0.2674102E+01  0.2898500E+01 -0.2065954E-08  0.1028977E-07 -0.6864133E-04 -0.2114369E-03  0.4083883E-09 -0.3529530E-08 -0.1140491E+00 -0.2034900E+01 -0.1720595E-14 -0.1415960E-14
  0.1000000E+01  0.2674102E+01  0.6523962E+00 -0.2065954E-08  0.8421538E-08 -0.6864133E-04 -0.1191337E-03  0.4083883E-09 -0.2350476E-09 -0.1140491E+00 -0.4539019E+00 -0.1720595E-14 -0.4395890E-15
  0.1100000E+01  0.2674102E+01 -0.1668570E+01 -0.2065954E-08  0.4902226E-08 -0.6864133E-04 -0.1105114E-04  0.4083883E-09  0.2837184E-08 -0.1140491E+00  0.1179221E+01 -0.1720595E-14  0.6076576E-15
  0.1200000E+01  0.2674102E+01 -0.3574831E+01 -0.2065954E-08  0.2017077E-09 -0.6864133E-04  0.9191648E-04  0.4083883E-09  0.4979849E-08 -0.1140491E+00  0.2519921E+01 -0.1720595E-14  0.1511130E-14
  0.1300000E+01  0.2674102E+01 -0.4676201E+01 -0.2065954E-08 -0.4911463E-08 -0.6864133E-04  0.1709302E-03  0.4083883E-09  0.5744417E-08 -0.1140491E+00  0.3293659E+01 -0.1720595E-14  0.2089015E-14
  0.1400000E+01  0.2674102E+01 -0.4763509E+01 -0.2065954E-08 -0.9488067E-08 -0.6864133E-04  0.2128053E-03  0.4083883E-09  0.5042795E-08 -0.1140491E+00  0.3353353E+01 -0.1720595E-14  0.2229659E-14
  0.1500000E+01  0.2674102E+01 -0.3849421E+01 -0.2065954E-08 -0.1257718E-07 -0.6864133E-04  0.2123250E-03  0.4083883E-09  0.3157226E-08 -0.1140491E+00  0.2708099E+01 -0.1720595E-14  0.1913830E-14
  0.1600000E+01  0.2674102E+01 -0.2160310E+01 -0.2065954E-08 -0.1343189E-07 -0.6864133E-04  0.1728427E-03  0.4083883E-09  0.6572505E-09 -0.1140491E+00  0.1517436E+01 -0.1720595E-14  0.1217329E-14
  0.1700000E+01  0.2674102E+01 -0.8191165E-01 -0.2065954E-08 -0.1169600E-07 -0.6864133E-04  0.1051216E-03  0.4083883E-09 -0.1754252E-08 -0.1140491E+00  0.5307463E-01 -0.1720595E-14  0.2935941E-15
  0.1800000E+01  0.2674102E+01  0.1928383E+01 -0.2065954E-08 -0.7524369E-08 -0.6864133E-04  0.2472425E-04  0.4083883E-09 -0.3426245E-08 -0.1140491E+00 -0.1362860E+01 -0.1720595E-14 -0.6598505E-15
  0.1900000E+01  0.2674102E+01  0.3442650E+01 -0.2065954E-08 -0.1600484E-08 -0.6864133E-04 -0.5144221E-04  0.4083883E-09 -0.3928730E-08 -0.1140491E+00 -0.2429029E+01 -0.1720595E-14 -0.1443803E-14
  0.2000000E+01  0.2674102E+01  0.4154498E+01 -0.2065954E-08  0.4964417E-08 -0.6864133E-04 -0.1086663E-03  0.4083883E-09 -0.3162779E-08 -0.1140491E+00 -0.2929703E+01 -0.1720595E-14 -0.1899570E-14
  0.2100000E+01  0.2674102E+01  0.3942024E+01 -0.2065954E-08  0.1083882E-07 -0.6864133E-04 -0.1373137E-03  0.4083883E-09 -0.1383442E-08 -0.1140491E+00 -0.2779091E+01 -0.1720595E-14 -0.1941859E-14
  0.2200000E+01  0.2674102E+01  0.2888597E+01 -0.2065954E-08  0.1474673E-07 -0.6864133E-04 -0.1344768E-03  0.4083883E-09  0.8703196E-09 -0.1140491E+00 -0.2035977E+01 -0.1720595E-14 -0.1575479E-14
  0.2300000E+01  0.2674102E+01  0.1257928E+01 -0.2065954E-08  0.1575349E-07 -0.6864133E-04 -0.1041060E-03  0.4083883E-09  0.2920951E-08 -0.1140491E+00 -0.8861656E+00 -0.1720595E-14 -0.8924241E-15
  0.2400000E+01  0.2674102E+01 -0.5698147E+00 -0.2065954E-08  0.1349593E-07 -0.6864133E-04 -0.5567247E-04  0.4083883E-09  0.4135478E-08 -0.1140491E+00  0.4025008E+00 -0.1720595E-14 -0.5015533E-16
  0.2500000E+01  0.2674102E+01 -0.2185624E+01 -0.2065954E-08  0.8299600E-08 -0.6864133E-04 -0.1728454E-05  0.4083883E-09  0.4099545E-08 -0.1140491E+00  0.1541847E+01 -0.1720595E-14  0.7639156E-15
  0.2600000E+01  0.2674102E+01 -0.3242929E+01 -0.2065954E-08  0.1147896E-08 -0.6864133E-04  0.4505170E-04  0.4083883E-09  0.2736708E-08 -0.1140491E+00  0.2287650E+01 -0.1720595E-14  0.1373923E-14
  0.2700000E+01  0.2674102E+01 -0.3532098E+01 -0.2065954E-08 -0.6499446E-08 -0.6864133E-04  0.7467657E-04  0.4083883E-09  0.3410360E-09 -0.1140491E+00  0.2492125E+01 -0.1720595E-14  0.1653811E-14
  0.2800000E+01  0.2674102E+01 -0.3022109E+01 -0.2065954E-08 -0.1300611E-07 -0.6864133E-04  0.8188418E-04  0.4083883E-09 -0.2487404E-08 -0.1140491E+00  0.2133293E+01 -0.1720595E-14  0.1554033E-14
  0.2900000E+01  0.2674102E+01 -0.1861029E+01 -0.2065954E-08 -0.1691486E-07 -0.6864133E-04  0.6701537E-04  0.4083883E-09 -0.4989872E-08 -0.1140491E+00  0.1315345E+01 -0.1720595E-14  0.1110885E-14
  0.3000000E+01  0.2674102E+01 -0.3364882E+00 -0.2065954E-08 -0.1728080E-07 -0.6864133E-04  0.3558111E-04  0.4083883E-09 -0.6443405E-08 -0.1140491E+00  0.2408330E+00 -0.1720595E-14  0.4366153E-15
  0.3100000E+01  0.2674102E+01  0.1193804E+01 -0.2065954E-08 -0.1390432E-07 -0.6864133E-04 -0.3317241E-05  0.4083883E-09 -0.6353727E-08 -0.1140491E+00 -0.8382533E+00 -0.1720595E-14 -0.3073257E-15
  0.3200000E+01  0.2674102E+01  0.2384904E+01 -0.2065954E-08 -0.7405999E-08 -0.6864133E-04 -0.3930424E-04  0.4083883E-09 -0.4597198E-08 -0.1140491E+00 -0.1678826E+01 -0.1720595E-14 -0.9477057E-15
  0.3300000E+01  0.2674102E+01  0.2981831E+01 -0.2065954E-08  0.8811296E-09 -0.6864133E-04 -0.6322868E-04  0.4083883E-09 -0.1473813E-08 -0.1140491E+00 -0.2101086E+01 -0.1720595E-14 -0.1339120E-14
  0.3400000E+01  0.2674102E+01  0.2873833E+01 -0.2065954E-08  0.9184584E-08 -0.6864133E-04 -0.6926781E-04  0.4083883E-09  0.2345345E-08 -0.1140491E+00 -0.2026769E+01 -0.1720595E-14 -0.1396810E-14
  0.3500000E+01  0.2674102E+01  0.2114193E+01 -0.2065954E-08  0.1567475E-07 -0.6864133E-04 -0.5617470E-04  0.4083883E-09  0.5966826E-08 -0.1140491E+00 -0.1493143E+01 -0.1720595E-14 -0.1115283E-14
  0.3600000E+01  0.2674102E+01  0.9022065E+00 -0.2065954E-08  0.1887333E-07 -0.6864133E-04 -0.2741819E-04  0.4083883E-09  0.8486097E-08 -0.1140491E+00 -0.6403579E+00 -0.1720595E-14 -0.5685781E-15
  0.3700000E+01  0.2674102E+01 -0.4673805E+00 -0.2065954E-08  0.1799518E-07 -0.6864133E-04  0.9778309E-05  0.4083883E-09  0.9211115E-08 -0.1140491E+00  0.3241241E+00 -0.1720595E-14  0.1077777E-15
  0.3800000E+01  0.2674102E+01 -0.1674951E+01 -0.2065954E-08  0.1314342E-07 -0.6864133E-04  0.4623944E-04  0.4083883E-09  0.7843343E-08 -0.1140491E+00  0.1175211E+01 -0.1720595E-14  0.7489905E-15
  0.3900000E+01  0.2674102E+01 -0.2449856E+01 -0.2065954E-08  0.5308836E-08 -0.6864133E-04  0.7304405E-04  0.4083883E-09  0.4570255E-08 -0.1140491E+00  0.1722182E+01 -0.1720595E-14  0.1199814E-14
  0.4000000E+01  0.2674102E+01 -0.2630563E+01 -0.2065954E-08 -0.3831663E-08 -0.6864133E-04  0.8361419E-04  0.4083883E-09  0.4351451E-10 -0.1140491E+00  0.1851069E+01 -0.1720595E-14  0.1351089E-14
  0.4100000E+01  0.2674102E+01 -0.2197835E+01 -0.2065954E-08 -0.1227710E-07 -0.6864133E-04  0.7521512E-04  0.4083883E-09 -0.4755814E-08 -0.1140491E+00  0.1548058E+01 -0.1720595E-14  0.1165453E-14
  0.4200000E+01  0.2674102E+01 -0.1274137E+01 -0.2065954E-08 -0.1814573E-07 -0.6864133E-04  0.4953498E-04  0.4083883E-09 -0.8736192E-08 -0.1140491E+00  0.8991259E+00 -0.1720595E-14  0.6862526E-15
  0.4300000E+01  0.2674102E+01 -0.9057066E-01 -0.2065954E-08 -0.2010040E-07 -0.6864133E-04  0.1223854E-04  0.4083883E-09 -0.1094874E-07 -0.1140491E+00  0.6679792E-01 -0.1720595E-14  0.2751044E-16
  0.4400000E+01  0.2674102E+01  0.1070127E+01 -0.2065954E-08 -0.1765873E-07 -0.6864133E-04 -0.2838170E-04  0.4083883E-09 -0.1081536E-07 -0.1140491E+00 -0.7499542E+00 -0.1720595E-14 -0.6527746E-15
  0.4500000E+01  0.2674102E+01  0.1940544E+01 -0.2065954E-08 -0.1131423E-07 -0.6864133E-04 -0.6332652E-04  0.4083883E-09 -0.8276365E-08 -0.1140491E+00 -0.1362851E+01 -0.1720595E-14 -0.1189869E-14
  0.4600000E+01  0.2674102E+01  0.2329826E+01 -0.2065954E-08 -0.2438351E-08 -0.6864133E-04 -0.8493508E-04  0.4083883E-09 -0.3821001E-08 -0.1140491E+00 -0.1637429E+01 -0.1720595E-14 -0.1451373E-14
  0.4700000E+01  0.2674102E+01  0.2165195E+01 -0.2065954E-08  0.7018386E-08 -0.6864133E-04 -0.8858927E-04  0.4083883E-09  0.1609661E-08 -0.1140491E+00 -0.1522300E+01 -0.1720595E-14 -0.1368994E-14
  0.4800000E+01  0.2674102E+01  0.1504798E+01 -0.2065954E-08  0.1496022E-07 -0.6864133E-04 -0.7369901E-04  0.4083883E-09  0.6827319E-08 -0.1140491E+00 -0.1058237E+01 -0.1720595E-14 -0.9554658E-15
  0.4900000E+01  0.2674102E+01  0.5197920E+00 -0.2065954E-08  0.1961818E-07 -0.6864133E-04 -0.4376389E-04  0.4083883E-09  0.1066339E-07 -0.1140491E+00 -0.3655936E+00 -0.1720595E-14 -0.3025078E-15
  0.5000000E+01  0.2674102E+01 -0.5491993E+00 -0.2065954E-08  0.1995168E-07 -0.6864133E-04 -0.5517688E-05  0.4083883E-09  0.1223652E-07 -0.1140491E+00  0.3863225E+00 -0.1720595E-14  0.4399059E-15
  0.5100000E+01  0.2674102E+01 -0.1450358E+01 -0.2065954E-08  0.1588797E-07 -0.6864133E-04  0.3263034E-04  0.4083883E-09  0.1115898E-07 -0.1140491E+00  0.1020265E+01 -0.1720595E-14  0.1098268E-14
  0.5200000E+01  0.2674102E+01 -0.1979680E+01 -0.2065954E-08  0.8342419E-08 -0.6864133E-04  0.6249329E-04  0.4083883E-09  0.7632726E-08 -0.1140491E+00  0.1392598E+01 -0.1720595E-14  0.1516248E-14
  0.5300000E+01  0.2674102E+01 -0.2026939E+01 -0.2065954E-08 -0.9861962E-09 -0.6864133E-04  0.7790997E-04  0.4083883E-09  0.2411464E-08 -0.1140491E+00  0.1425673E+01 -0.1720595E-14  0.1591817E-14
  0.5400000E+01  0.2674102E+01 -0.1598325E+01 -0.2065954E-08 -0.1000055E-07 -0.6864133E-04  0.7605462E-04  0.4083883E-09 -0.3364301E-08 -0.1140491E+00  0.1123799E+01 -0.1720595E-14  0.1302047E-14
  0.5500000E+01  0.2674102E+01 -0.8111671E+00 -0.2065954E-08 -0.1668149E-07 -0.6864133E-04  0.5797388E-04  0.4083883E-09 -0.8422077E-08 -0.1140491E+00  0.5695429E+00 -0.1720595E-14  0.7094575E-15
  0.5600000E+01  0.2674102E+01  0.1371667E+00 -0.2065954E-08 -0.1954801E-07 -0.6864133E-04  0.2824884E-04  0.4083883E-09 -0.1164441E-07 -0.1140491E+00 -0.9814504E-01 -0.1720595E-14 -0.5167503E-16
  0.5700000E+01  0.2674102E+01  0.1018132E+01 -0.2065954E-08 -0.1799396E-07 -0.6864133E-04 -0.6117590E-05  0.4083883E-09 -0.1232193E-07 -0.1140491E+00 -0.7183316E+00 -0.1720595E-14 -0.8061736E-15
  0.5800000E+01  0.2674102E+01  0.1626640E+01 -0.2065954E-08 -0.1242393E-07 -0.6864133E-04 -0.3732126E-04  0.4083883E-09 -0.1031423E-07 -0.1140491E+00 -0.1146576E+01 -0.1720595E-14 -0.1378822E-14
  0.5900000E+01  0.2674102E+01  0.1828542E+01 -0.2065954E-08 -0.4155870E-08 -0.6864133E-04 -0.5851439E-04  0.4083883E-09 -0.6081068E-08 -0.1140491E+00 -0.1288383E+01 -0.1720595E-14 -0.1635742E-14
  0.6000000E+01  0.2674102E+01  0.1589929E+01 -0.2065954E-08  0.4886312E-08 -0.6864133E-04 -0.6530147E-04  0.4083883E-09 -0.5768742E-09 -0.1140491E+00 -0.1119857E+01 -0.1720595E-14 -0.1516391E-14
  0.6100000E+01  0.2674102E+01  0.9819957E+00 -0.2065954E-08  0.1261981E-07 -0.6864133E-04 -0.5665111E-04  0.4083883E-09  0.4967441E-08 -0.1140491E+00 -0.6911486E+00 -0.1720595E-14 -0.1048545E-14
  0.6200000E+01  0.2674102E+01  0.1609700E+00 -0.2065954E-08  0.1728527E-07 -0.6864133E-04 -0.3503564E-04  0.4083883E-09  0.9324767E-08 -0.1140491E+00 -0.1123310E+00 -0.1720595E-14 -0.3424127E-15
  0.6300000E+01  0.2674102E+01 -0.6713742E+00 -0.2065954E-08  0.1785238E-07 -0.6864133E-04 -0.5787037E-05  0.4083883E-09  0.1154941E-07 -0.1140491E+00  0.4744066E+00 -0.1720595E-14  0.4349079E-15
  0.6400000E+01  0.2674102E+01 -0.1316829E+01 -0.2065954E-08  0.1425440E-07 -0.6864133E-04  0.2416822E-04  0.4083883E-09  0.1118856E-07 -0.1140491E+00  0.9293633E+00 -0.1720595E-14  0.1098872E-14
  0.6500000E+01  0.2674102E+01 -0.1627564E+01 -0.2065954E-08  0.7396753E-08 -0.6864133E-04  0.4789902E-04  0.4083883E-09  0.8378696E-08 -0.1140491E+00  0.1148317E+01 -0.1720595E-14  0.1491542E-14
  0.6600000E+01  0.2674102E+01 -0.1539671E+01 -0.2065954E-08 -0.1061496E-08 -0.6864133E-04  0.6002285E-04  0.4083883E-09  0.3806170E-08 -0.1140491E+00  0.1086186E+01 -0.1720595E-14  0.1519736E-14
  0.6700000E+01  0.2674102E+01 -0.1085878E+01 -0.2065954E-08 -0.9101973E-08 -0.6864133E-04  0.5788087E-04  0.4083883E-09 -0.1458076E-08 -0.1140491E+00  0.7660102E+00 -0.1720595E-14  0.1178059E-14
  0.6800000E+01  0.2674102E+01 -0.3850171E+00 -0.2065954E-08 -0.1482401E-07 -0.6864133E-04  0.4208112E-04  0.4083883E-09 -0.6209943E-08 -0.1140491E+00  0.2715480E+00 -0.1720595E-14  0.5510677E-15
  0.6900000E+01  0.2674102E+01  0.3886537E+00 -0.2065954E-08 -0.1689241E-07 -0.6864133E-04  0.1630699E-04  0.4083883E-09 -0.9390822E-08 -0.1140491E+00 -0.2743297E+00 -0.1720595E-14 -0.2063913E-15
  0.7000000E+01  0.2674102E+01  0.1048404E+01 -0.2065954E-08 -0.1485009E-07 -0.6864133E-04 -0.1355403E-04  0.4083883E-09 -0.1032814E-07 -0.1140491E+00 -0.7399141E+00 -0.1720595E-14 -0.9060922E-15
  0.7100000E+01  0.2674102E+01  0.1439816E+01 -0.2065954E-08 -0.9222375E-08 -0.6864133E-04 -0.4075255E-04  0.4083883E-09 -0.8882637E-08 -0.1140491E+00 -0.1016240E+01 -0.1720595E-14 -0.1372180E-14
  0.7200000E+01  0.2674102E+01  0.1476627E+01 -0.2065954E-08 -0.1388527E-08 -0.6864133E-04 -0.5918515E-04  0.4083883E-09 -0.5469142E-08 -0.1140491E+00 -0.1042383E+01 -0.1720595E-14 -0.1484589E-14
  0.7300000E+01  0.2674102E+01  0.1159456E+01 -0.2065954E-08  0.6749099E-08 -0.6864133E-04 -0.6473648E-04  0.4083883E-09 -0.9478975E-09 -0.1140491E+00 -0.8186904E+00 -0.1720595E-14 -0.1209731E-14
  0.7400000E+01  0.2674102E+01  0.5733141E+00 -0.2065954E-08  0.1321950E-07 -0.6864133E-04 -0.5616069E-04  0.4083883E-09  0.3586409E-08 -0.1140491E+00 -0.4050620E+00 -0.1720595E-14 -0.6105516E-15
  0.7500000E+01  0.2674102E+01 -0.1348434E+00 -0.2065954E-08  0.1645383E-07 -0.6864133E-04 -0.3532213E-04  0.4083883E-09  0.7066747E-08 -0.1140491E+00  0.9485418E-01 -0.1720595E-14  0.1668395E-15
  0.7600000E+01  0.2674102E+01 -0.7928083E+00 -0.2065954E-08  0.1566034E-07 -0.6864133E-04 -0.6752633E-05  0.4083883E-09  0.8704613E-08 -0.1140491E+00  0.5595258E+00 -0.1720595E-14  0.9273982E-15
  0.7700000E+01  0.2674102E+01 -0.1244820E+01 -0.2065954E-08  0.1101471E-07 -0.6864133E-04  0.2336736E-04  0.4083883E-09  0.8170625E-08 -0.1140491E+00  0.8789574E+00 -0.1720595E-14  0.1474246E-14
  0.7800000E+01  0.2674102E+01 -0.1388303E+01 -0.2065954E-08  0.3620326E-08 -0.6864133E-04  0.4856764E-04  0.4083883E-09  0.5663211E-08 -0.1140491E+00  0.9806277E+00 -0.1720595E-14  0.1657653E-14
  0.7900000E+01  0.2674102E+01 -0.1196977E+01 -0.2065954E-08 -0.4752545E-08 -0.6864133E-04  0.6349423E-04  0.4083883E-09  0.1850708E-08 -0.1140491E+00  0.8458385E+00 -0.1720595E-14  0.1413837E-14
  0.8000000E+01  0.2674102E+01 -0.7252119E+00 -0.2065954E-08 -0.1208752E-07 -0.6864133E-04  0.6505255E-04  0.4083883E-09 -0.2297775E-08 -0.1140491E+00  0.5128322E+00 -0.1720595E-14  0.7839605E-15
  0.8100000E+01  0.2674102E+01 -0.9295356E-01 -0.2065954E-08 -0.1660252E-07 -0.6864133E-04  0.5304823E-04  0.4083883E-09 -0.5750698E-08 -0.1140491E+00  0.6620218E-01 -0.1720595E-14 -0.9213958E-16
  0.8200000E+01  0.2674102E+01  0.5445417E+00 -0.2065954E-08 -0.1717674E-07 -0.6864133E-04  0.3019535E-04  0.4083883E-09 -0.7664128E-08 -0.1140491E+00 -0.3844393E+00 -0.1720595E-14 -0.1006482E-14
  0.8300000E+01  0.2674102E+01  0.1034754E+01 -0.2065954E-08 -0.1362216E-07 -0.6864133E-04  0.1498972E-05  0.4083883E-09 -0.7583566E-08 -0.1140491E+00 -0.7313056E+00 -0.1720595E-14 -0.1731468E-14
  0.8400001E+01  0.2674102E+01  0.1264255E+01 -0.2065954E-08 -0.6734599E-08 -0.6864133E-04 -0.2684401E-04  0.4083883E-09 -0.5549526E-08 -0.1140491E+00 -0.8941212E+00 -0.1720595E-14 -0.2074870E-14
  0.8500000E+01  0.2674102E+01  0.1184919E+01 -0.2065954E-08  0.1888066E-08 -0.6864133E-04 -0.4878926E-04  0.4083883E-09 -0.2083095E-08 -0.1140491E+00 -0.8386719E+00 -0.1720595E-14 -0.1928489E-14
  0.8600000E+01  0.2674102E+01  0.8238059E+00 -0.2065954E-08  0.1021984E-07 -0.6864133E-04 -0.5974164E-04  0.4083883E-09  0.1944705E-08 -0.1140491E+00 -0.5838453E+00 -0.1720595E-14 -0.1298268E-14
  0.8700000E+01  0.2674102E+01  0.2748272E+00 -0.2065954E-08  0.1628266E-07 -0.6864133E-04 -0.5752630E-04  0.4083883E-09  0.5526530E-08 -0.1140491E+00 -0.1958150E+00 -0.1720595E-14 -0.3080765E-15
  0.8800000E+01  0.2674102E+01 -0.3253788E+00 -0.2065954E-08  0.1861511E-07 -0.6864133E-04 -0.4283874E-04  0.4083883E-09  0.7764288E-08 -0.1140491E+00  0.2289442E+00 -0.1720595E-14  0.8248738E-15
  0.8900001E+01  0.2674102E+01 -0.8312705E+00 -0.2065954E-08  0.1662088E-07 -0.6864133E-04 -0.1907369E-04  0.4083883E-09  0.8086795E-08 -0.1140491E+00  0.5875179E+00 -0.1720595E-14  0.1837906E-14
  0.9000000E+01  0.2674102E+01 -0.1123522E+01 -0.2065954E-08  0.1071569E-07 -0.6864133E-04  0.8418575E-05  0.4083883E-09  0.6388122E-08 -0.1140491E+00  0.7953693E+00 -0.1720595E-14  0.2483662E-14
  0.9100000E+01  0.2674102E+01 -0.1137073E+01 -0.2065954E-08  0.2236356E-08 -0.6864133E-04  0.3349296E-04  0.4083883E-09  0.3053371E-08 -0.1140491E+00  0.8062044E+00 -0.1720595E-14  0.2589665E-14
  0.9200000E+01  0.2674102E+01 -0.8754580E+00 -0.2065954E-08 -0.6866593E-08 -0.6864133E-04  0.5053637E-04  0.4083883E-09 -0.1133200E-08 -0.1140491E+00  0.6221695E+00 -0.1720595E-14  0.2102434E-14
  0.9300000E+01  0.2674102E+01 -0.4083701E+00 -0.2065954E-08 -0.1448221E-07 -0.6864133E-04  0.5568410E-04  0.4083883E-09 -0.5175625E-08 -0.1140491E+00  0.2922274E+00 -0.1720595E-14  0.1105136E-14
  0.9400001E+01  0.2674102E+01  0.1466171E+00 -0.2065954E-08 -0.1883157E-07 -0.6864133E-04  0.4766697E-04  0.4083883E-09 -0.8103714E-08 -0.1140491E+00 -0.1006787E+00 -0.1720595E-14 -0.1962383E-15
  0.9500000E+01  0.2674102E+01  0.6534320E+00 -0.2065954E-08 -0.1888450E-07 -0.6864133E-04  0.2811017E-04  0.4083883E-09 -0.9204145E-08 -0.1140491E+00 -0.4603331E+00 -0.1720595E-14 -0.1516138E-14
  0.9600000E+01  0.2674102E+01  0.9906762E+00 -0.2065954E-08 -0.1460272E-07 -0.6864133E-04  0.1221433E-05  0.4083883E-09 -0.8190028E-08 -0.1140491E+00 -0.7006828E+00 -0.1720595E-14 -0.2552971E-14
  0.9700000E+01  0.2674102E+01  0.1080511E+01 -0.2065954E-08 -0.6952158E-08 -0.6864133E-04 -0.2707448E-04  0.4083883E-09 -0.5269084E-08 -0.1140491E+00 -0.7662974E+00 -0.1720595E-14 -0.3058489E-14
  0.9800000E+01  0.2674102E+01  0.9064746E+00 -0.2065954E-08  0.2318763E-08 -0.6864133E-04 -0.5037778E-04  0.4083883E-09 -0.1094934E-08 -0.1140491E+00 -0.6450499E+00 -0.1720595E-14 -0.2897228E-14
  0.9900001E+01  0.2674102E+01  0.5161057E+00 -0.2065954E-08  0.1108296E-07 -0.6864133E-04 -0.6317531E-04  0.4083883E-09  0.3386320E-08 -0.1140491E+00 -0.3700889E+00 -0.1720595E-14 -0.2081669E-14
Zone t="DoF    2",I=   100,F=POINT
  0.0000000E+00 -0.4699091E-08  0.2674451E-07  0.2674204E+01 -0.5551398E+01  0.1135728E-06  0.8463602E-07  0.1141198E+00 -0.3902105E+01  0.1109147E-08 -0.4282764E-08  0.1098145E-08 -0.2104187E-08
  0.1000000E+00 -0.4699091E-08  0.2393433E-07  0.2674204E+01 -0.4977226E+01  0.1135728E-06  0.7572006E-07  0.1141198E+00 -0.3498257E+01  0.1109147E-08 -0.3653496E-08  0.1098145E-08 -0.1886030E-08
  0.2000000E+00 -0.4699091E-08  0.1610485E-07  0.2674204E+01 -0.3376412E+01  0.1135728E-06  0.5147286E-07  0.1141198E+00 -0.2372339E+01  0.1109147E-08 -0.1935961E-08  0.1098145E-08 -0.1277881E-08
  0.3000000E+00 -0.4699091E-08  0.4928731E-08  0.2674204E+01 -0.1087765E+01  0.1135728E-06  0.1863127E-07  0.1141198E+00 -0.7627375E+00  0.1109147E-08  0.4029419E-09  0.1098145E-08 -0.4086906E-09
  0.4000000E+00 -0.4699091E-08 -0.7212817E-08  0.2674204E+01  0.1405874E+01  0.1135728E-06 -0.1389582E-07  0.1141198E+00  0.9908381E+00  0.1109147E-08  0.2720510E-08  0.1098145E-08  0.5378163E-09
  0.5000000E+00 -0.4699091E-08 -0.1774547E-07  0.2674204E+01  0.3581530E+01  0.1135728E-06 -0.3776327E-07  0.1141198E+00  0.2520458E+01  0.1109147E-08  0.4365578E-08  0.1098145E-08  0.1362732E-08
  0.6000000E+00 -0.4699091E-08 -0.2445663E-07  0.2674204E+01  0.4988080E+01  0.1135728E-06 -0.4775761E-07  0.1141198E+00  0.3508780E+01  0.1109147E-08  0.4850248E-08  0.1098145E-08  0.1894625E-08
  0.7000000E+00 -0.4699091E-08 -0.2596827E-07  0.2674204E+01  0.5341966E+01  0.1135728E-06 -0.4339611E-07  0.1141198E+00  0.3756400E+01  0.1109147E-08  0.3982385E-08  0.1098145E-08  0.2025974E-08
  0.8000000E+00 -0.4699091E-08 -0.2202515E-07  0.2674204E+01  0.4585968E+01  0.1135728E-06 -0.2903369E-07  0.1141198E+00  0.3223196E+01  0.1109147E-08  0.1924620E-08  0.1098145E-08  0.1735499E-08
  0.9000000E+00 -0.4699091E-08 -0.1353713E-07  0.2674204E+01  0.2898570E+01  0.1135728E-06 -0.1239714E-07  0.1141198E+00  0.2034912E+01  0.1109147E-08 -0.8364097E-09  0.1098145E-08  0.1091648E-08
  0.1000000E+01 -0.4699091E-08 -0.2368902E-08  0.2674204E+01  0.6524001E+00  0.1135728E-06 -0.1950125E-08  0.1141198E+00  0.4538911E+00  0.1109147E-08 -0.3604664E-08  0.1098145E-08  0.2366750E-09
  0.1100000E+01 -0.4699091E-08  0.9074204E-08  0.2674204E+01 -0.1668632E+01  0.1135728E-06 -0.3872603E-08  0.1141198E+00 -0.1179251E+01  0.1109147E-08 -0.5646215E-08  0.1098145E-08 -0.6450168E-09
  0.1200000E+01 -0.4699091E-08  0.1837127E-07  0.2674204E+01 -0.3574942E+01  0.1135728E-06 -0.1959633E-07  0.1141198E+00 -0.2519965E+01  0.1109147E-08 -0.6375952E-08  0.1098145E-08 -0.1367153E-08
  0.1300000E+01 -0.4699091E-08  0.2360574E-07  0.2674204E+01 -0.4676338E+01  0.1135728E-06 -0.4473227E-07  0.1141198E+00 -0.3293707E+01  0.1109147E-08 -0.5513205E-08  0.1098145E-08 -0.1781617E-08
  0.1400000E+01 -0.4699091E-08  0.2376697E-07  0.2674204E+01 -0.4763641E+01  0.1135728E-06 -0.6984939E-07  0.1141198E+00 -0.3353394E+01  0.1109147E-08 -0.3166550E-08  0.1098145E-08 -0.1809482E-08
  0.1500000E+01 -0.4699091E-08  0.1894796E-07  0.2674204E+01 -0.3849519E+01  0.1135728E-06 -0.8303613E-07  0.1141198E+00 -0.2708122E+01  0.1109147E-08  0.1753881E-09  0.1098145E-08 -0.1456456E-08
  0.1600000E+01 -0.4699091E-08  0.1030021E-07  0.2674204E+01 -0.2160353E+01  0.1135728E-06 -0.7362843E-07  0.1141198E+00 -0.1517437E+01  0.1109147E-08  0.3747736E-08  0.1098145E-08 -0.8096255E-09
  0.1700000E+01 -0.4699091E-08 -0.2395427E-09  0.2674204E+01 -0.8189344E-01  0.1135728E-06 -0.3607637E-07  0.1141198E+00 -0.5305266E-01  0.1109147E-08  0.6685381E-08  0.1098145E-08 -0.1658855E-10
  0.1800000E+01 -0.4699091E-08 -0.1038597E-07  0.2674204E+01  0.1928457E+01  0.1135728E-06  0.2722027E-07  0.1141198E+00  0.1362900E+01  0.1109147E-08  0.8230372E-08  0.1098145E-08  0.7480983E-09
  0.1900000E+01 -0.4699091E-08 -0.1800593E-07  0.2674204E+01  0.3442762E+01  0.1135728E-06  0.1050861E-06  0.1141198E+00  0.2429080E+01  0.1109147E-08  0.7921322E-08  0.1098145E-08  0.1321528E-08
  0.2000000E+01 -0.4699091E-08 -0.2157264E-07  0.2674204E+01  0.4154620E+01  0.1135728E-06  0.1792597E-06  0.1141198E+00  0.2929752E+01  0.1109147E-08  0.5718387E-08  0.1098145E-08  0.1587519E-08
  0.2100000E+01 -0.4699091E-08 -0.2047517E-07  0.2674204E+01  0.3942129E+01  0.1135728E-06  0.2284258E-06  0.1141198E+00  0.2779127E+01  0.1109147E-08  0.2031533E-08  0.1098145E-08  0.1500518E-08
  0.2200000E+01 -0.4699091E-08 -0.1511990E-07  0.2674204E+01  0.2888663E+01  0.1135728E-06  0.2337383E-06  0.1141198E+00  0.2035993E+01  0.1109147E-08 -0.2357650E-08  0.1098145E-08  0.1093363E-08
  0.2300000E+01 -0.4699091E-08 -0.6807890E-08  0.2674204E+01  0.1257941E+01  0.1135728E-06  0.1844784E-06  0.1141198E+00  0.8861573E+00  0.1109147E-08 -0.6465463E-08  0.1098145E-08  0.4675786E-09
  0.2400000E+01 -0.4699091E-08  0.2577843E-08  0.2674204E+01 -0.5698558E+00  0.1135728E-06  0.8229108E-07  0.1141198E+00 -0.4025313E+00  0.1109147E-08 -0.9329319E-08  0.1098145E-08 -0.2311661E-09
  0.2500000E+01 -0.4699091E-08  0.1100035E-07  0.2674204E+01 -0.2185707E+01  0.1135728E-06 -0.5730690E-07  0.1141198E+00 -0.1541892E+01  0.1109147E-08 -0.1023367E-07  0.1098145E-08 -0.8466077E-09
  0.2600000E+01 -0.4699091E-08  0.1671446E-07  0.2674204E+01 -0.3243033E+01  0.1135728E-06 -0.2068949E-06  0.1141198E+00 -0.2287700E+01  0.1109147E-08 -0.8885433E-08  0.1098145E-08 -0.1246758E-08
  0.2700000E+01 -0.4699091E-08  0.1863152E-07  0.2674204E+01 -0.3532197E+01  0.1135728E-06 -0.3324623E-06  0.1141198E+00 -0.2492169E+01  0.1109147E-08 -0.5496506E-08  0.1098145E-08 -0.1352285E-08
  0.2800000E+01 -0.4699091E-08  0.1652644E-07  0.2674204E+01 -0.3022180E+01  0.1135728E-06 -0.4010707E-06  0.1141198E+00 -0.2133321E+01  0.1109147E-08 -0.7514853E-09  0.1098145E-08 -0.1152285E-08
  0.2900000E+01 -0.4699091E-08  0.1104762E-07  0.2674204E+01 -0.1861056E+01  0.1135728E-06 -0.3891481E-06  0.1141198E+00 -0.1315351E+01  0.1109147E-08  0.4334722E-08  0.1098145E-08 -0.7042822E-09
  0.3000000E+01 -0.4699091E-08  0.3535718E-08  0.2674204E+01 -0.3364659E+00  0.1135728E-06 -0.2893816E-06  0.1141198E+00 -0.2408149E+00  0.1109147E-08  0.8639049E-08  0.1098145E-08 -0.1189484E-09
  0.3100000E+01 -0.4699091E-08 -0.4300623E-08  0.2674204E+01  0.1193869E+01  0.1135728E-06 -0.1143285E-06  0.1141198E+00  0.8382900E+00  0.1109147E-08  0.1118287E-07  0.1098145E-08  0.4665917E-09
  0.3200000E+01 -0.4699091E-08 -0.1077400E-07  0.2674204E+01  0.2384994E+01  0.1135728E-06  0.1044537E-06  0.1141198E+00  0.1678873E+01  0.1109147E-08  0.1135730E-07  0.1098145E-08  0.9204927E-09
  0.3300000E+01 -0.4699091E-08 -0.1458376E-07  0.2674204E+01  0.2981923E+01  0.1135728E-06  0.3219773E-06  0.1141198E+00  0.2101132E+01  0.1109147E-08  0.9069012E-08  0.1098145E-08  0.1145681E-08
  0.3400000E+01 -0.4699091E-08 -0.1507776E-07  0.2674204E+01  0.2873904E+01  0.1135728E-06  0.4891411E-06  0.1141198E+00  0.2026804E+01  0.1109147E-08  0.4771744E-08  0.1098145E-08  0.1100508E-08
  0.3500000E+01 -0.4699091E-08 -0.1235760E-07  0.2674204E+01  0.2114224E+01  0.1135728E-06  0.5638573E-06  0.1141198E+00  0.1493158E+01  0.1109147E-08 -0.6257503E-09  0.1098145E-08  0.8061719E-09
  0.3600000E+01 -0.4699091E-08 -0.7212247E-08  0.2674204E+01  0.9021915E+00  0.1135728E-06  0.5214674E-06  0.1141198E+00  0.6403501E+00  0.1109147E-08 -0.5956306E-08  0.1098145E-08  0.3396587E-09
  0.3700000E+01 -0.4699091E-08 -0.9038107E-09  0.2674204E+01 -0.4674390E+00  0.1135728E-06  0.3618981E-06  0.1141198E+00 -0.3241529E+00  0.1109147E-08 -0.1005201E-07  0.1098145E-08 -0.1857507E-09
  0.3800000E+01 -0.4699091E-08  0.5138470E-08  0.2674204E+01 -0.1675038E+01  0.1135728E-06  0.1116084E-06  0.1141198E+00 -0.1175254E+01  0.1109147E-08 -0.1200557E-07  0.1098145E-08 -0.6475760E-09
  0.3900000E+01 -0.4699091E-08  0.9642291E-08  0.2674204E+01 -0.2449950E+01  0.1135728E-06 -0.1804957E-06  0.1141198E+00 -0.1722229E+01  0.1109147E-08 -0.1137564E-07  0.1098145E-08 -0.9424148E-09
  0.4000000E+01 -0.4699091E-08  0.1176069E-07  0.2674204E+01 -0.2630641E+01  0.1135728E-06 -0.4526385E-06  0.1141198E+00 -0.1851108E+01  0.1109147E-08 -0.8289299E-08  0.1098145E-08 -0.1008909E-08
  0.4100000E+01 -0.4699091E-08  0.1122809E-07  0.2674204E+01 -0.2197876E+01  0.1135728E-06 -0.6433704E-06  0.1141198E+00 -0.1548080E+01  0.1109147E-08 -0.3417461E-08  0.1098145E-08 -0.8403334E-09
  0.4200000E+01 -0.4699091E-08  0.8375774E-08  0.2674204E+01 -0.1274130E+01  0.1135728E-06 -0.7055238E-06  0.1141198E+00 -0.8991262E+00  0.1109147E-08  0.2172131E-08  0.1098145E-08 -0.4842248E-09
  0.4300000E+01 -0.4699091E-08  0.4012901E-08  0.2674204E+01 -0.9051518E-01  0.1135728E-06 -0.6177525E-06  0.1141198E+00 -0.6677572E-01  0.1109147E-08  0.7251807E-08  0.1098145E-08 -0.2958464E-10
  0.4400000E+01 -0.4699091E-08 -0.7910608E-09  0.2674204E+01  0.1070219E+01  0.1135728E-06 -0.3908534E-06  0.1141198E+00  0.7499939E+00  0.1109147E-08  0.1070788E-07  0.1098145E-08  0.4150499E-09
  0.4500000E+01 -0.4699091E-08 -0.4965442E-08  0.2674204E+01  0.1940651E+01  0.1135728E-06 -0.6711681E-07  0.1141198E+00  0.1362899E+01  0.1109147E-08  0.1178947E-07  0.1098145E-08  0.7472962E-09
  0.4600000E+01 -0.4699091E-08 -0.7677017E-08  0.2674204E+01  0.2329923E+01  0.1135728E-06  0.2874896E-06  0.1141198E+00  0.1637474E+01  0.1109147E-08  0.1027604E-07  0.1098145E-08  0.8943570E-09
  0.4700000E+01 -0.4699091E-08 -0.8494657E-08  0.2674204E+01  0.2165258E+01  0.1135728E-06  0.5968815E-06  0.1141198E+00  0.1522332E+01  0.1109147E-08  0.6525704E-08  0.1098145E-08  0.8288477E-09
  0.4800000E+01 -0.4699091E-08 -0.7447734E-08  0.2674204E+01  0.1504811E+01  0.1135728E-06  0.7913379E-06  0.1141198E+00  0.1058247E+01  0.1109147E-08  0.1393260E-08  0.1098145E-08  0.5736018E-09
  0.4900000E+01 -0.4699091E-08 -0.4973549E-08  0.2674204E+01  0.5197500E+00  0.1135728E-06  0.8233107E-06  0.1141198E+00  0.3655792E+00  0.1109147E-08 -0.3963832E-08  0.1098145E-08  0.1946843E-09
  0.5000000E+01 -0.4699091E-08 -0.1775376E-08  0.2674204E+01 -0.5492885E+00  0.1135728E-06  0.6789193E-06  0.1141198E+00 -0.3863586E+00  0.1109147E-08 -0.8346940E-08  0.1098145E-08 -0.2153954E-09