VARIABLES="w (rad/s)"
"A   1   1" "B   1   1"
"A   1   2" "B   1   2"
"A   1   3" "B   1   3"
"A   1   4" "B   1   4"
"A   1   5" "B   1   5"
"A   1   6" "B   1   6"
Zone t="Motion of body    1 in DoF   1",I=    21,F=POINT
  0.3000000E+01  0.3185242E+01 -0.1743167E+00  0.3434858E-07  0.5411493E-10 -0.4200637E-04  0.2934746E-03 -0.5432715E-09 -0.1455192E-08 -0.5488305E+00  0.1139368E+00 -0.1199041E-13  0.6591949E-16
  0.3100000E+01  0.3131760E+01 -0.2276445E+00 -0.4428359E-07 -0.1577064E-08  0.2610107E-05 -0.2309084E-03  0.2703840E-08  0.3070454E-08 -0.5130547E+00  0.1505161E+00 -0.7879003E-15 -0.6938894E-15
  0.3200000E+01  0.3077685E+01 -0.3035037E+00 -0.1294211E-07 -0.5505626E-08 -0.1716521E-03  0.6505176E-03  0.7275958E-09  0.5107722E-08 -0.4685735E+00  0.2026688E+00 -0.4024558E-14  0.4440892E-15
  0.3300000E+01  0.3036441E+01 -0.3967251E+00 -0.1045092E-08 -0.1709850E-09 -0.1796719E-04 -0.1136213E-03 -0.3174963E-08  0.3346941E-09 -0.4304096E+00  0.2682060E+00 -0.1174145E-13 -0.1575129E-14
  0.3400000E+01  0.2970594E+01 -0.5134018E+00  0.2730196E-07 -0.4510184E-08 -0.3696803E-04  0.6634742E-05 -0.2465266E-07 -0.5151378E-08 -0.3715034E+00  0.3484649E+00  0.1092263E-13  0.5898060E-15
  0.3500000E+01  0.2885231E+01 -0.6600561E+00 -0.2017311E-07 -0.5056791E-08 -0.8790834E-04  0.2150685E-03 -0.2567789E-07  0.4132744E-08 -0.3034410E+00  0.4498933E+00 -0.2014262E-14  0.1609823E-14
  0.3600000E+01  0.2778280E+01 -0.8501872E+00  0.2392779E-07  0.2348315E-08 -0.6250209E-04  0.1206174E-03  0.9959978E-08  0.9604264E-09 -0.2171983E+00  0.5844769E+00 -0.1063964E-14  0.5273559E-15
  0.3700000E+01  0.2679697E+01 -0.1084894E+01  0.1056784E-07  0.3055902E-08 -0.1748269E-03  0.6232969E-03  0.2328306E-07  0.2016895E-07 -0.1405247E+00  0.7548496E+00  0.9151838E-15  0.2733924E-14
  0.3800000E+01  0.2575896E+01 -0.1382269E+01  0.1019591E-07 -0.1489752E-08  0.4313886E-04 -0.6969832E-04  0.2352815E-07  0.1507578E-07 -0.5928006E-01  0.9690195E+00 -0.8779527E-14 -0.1290634E-14
  0.3900000E+01  0.2475737E+01 -0.1741737E+01 -0.1274412E-07 -0.4733010E-08 -0.3620218E-04  0.8005276E-04 -0.8596824E-08  0.4714821E-08  0.1943246E-01  0.1218412E+01 -0.5721918E-14  0.3136380E-14
  0.4000000E+01  0.2367062E+01 -0.2190863E+01  0.1364242E-08 -0.1423541E-07 -0.6680563E-04  0.3679842E-04 -0.1455192E-07 -0.1688022E-08  0.1035202E+00  0.1534224E+01  0.9159340E-14  0.0000000E+00
  0.4100000E+01  0.2258356E+01 -0.2719340E+01  0.1133985E-08 -0.1078661E-07 -0.1538054E-03  0.7438846E-03 -0.1249335E-07  0.2112938E-07  0.1865149E+00  0.1916407E+01 -0.6498867E-15 -0.3691492E-14
  0.4200000E+01  0.2092948E+01 -0.3502223E+01 -0.2342859E-07 -0.3602327E-07  0.2631829E-04 -0.1911819E-04  0.2683096E-07 -0.1618173E-07  0.3123742E+00  0.2482410E+01 -0.3938649E-14  0.7022161E-14
  0.4300000E+01  0.1922464E+01 -0.4368444E+01  0.3331712E-08 -0.3777313E-07 -0.1042804E-03  0.3906377E-03 -0.5956132E-08  0.6868504E-08  0.4398415E+00  0.3085377E+01 -0.2375361E-14  0.3275158E-14
  0.4400000E+01  0.1727145E+01 -0.5451865E+01  0.7815040E-08 -0.1092485E-07 -0.3458424E-04  0.4111603E-04 -0.1989644E-07 -0.1105946E-07  0.5849909E+00  0.3834414E+01  0.9436896E-14  0.2831069E-14
  0.4500000E+01  0.1550971E+01 -0.6729142E+01 -0.3946803E-07 -0.1917215E-07 -0.4224645E-04  0.6705523E-07 -0.7243620E-09 -0.2793968E-07  0.7198754E+00  0.4720863E+01 -0.6686010E-14  0.8160139E-14
  0.4600000E+01  0.1377124E+01 -0.8273409E+01  0.4950815E-08 -0.8317875E-07 -0.6879154E-04  0.7348210E-03  0.2105599E-07  0.8265488E-08  0.8501982E+00  0.5801026E+01 -0.1472252E-14 -0.1748601E-13
  0.4700000E+01  0.1209146E+01 -0.9997655E+01  0.2070707E-07 -0.1111985E-06 -0.9749798E-04  0.6144419E-03  0.6539074E-08 -0.4237518E-07  0.9823793E+00  0.7061199E+01  0.4015700E-15  0.1232348E-13
  0.4800000E+01  0.8785710E+00 -0.1236247E+02 -0.7848939E-08  0.3343303E-07 -0.2493461E-04  0.7265136E-03  0.1843243E-08  0.3434252E-07  0.1222165E+01  0.8740783E+01  0.5319818E-15  0.9547918E-14
  0.4900000E+01  0.6632843E+00 -0.1509367E+02 -0.6548362E-08  0.1789158E-07 -0.5192294E-04 -0.3434867E-03 -0.5797008E-08  0.3108289E-07  0.1373225E+01  0.1062187E+02 -0.1042250E-14  0.3197442E-13
  0.5000000E+01  0.5175748E+00 -0.1852420E+02 -0.3798050E-08  0.3058958E-06 -0.1534820E-05  0.9167604E-03  0.3688037E-07  0.1724693E-06  0.1472653E+01  0.1298283E+02 -0.5995204E-15 -0.4185541E-13
Zone t="Motion of body    1 in DoF   2",I=    21,F=POINT
  0.3000000E+01 -0.2958647E-07  0.1296030E-09  0.3185271E+01 -0.1743023E+00 -0.8114924E-06 -0.1915032E-06  0.5488448E+00 -0.1139242E+00  0.4656613E-09 -0.1105946E-08  0.1297526E-08 -0.6065192E-10
  0.3100000E+01 -0.1371283E-07  0.9467840E-09  0.3131835E+01 -0.2276385E+00 -0.9178034E-06  0.8445932E-07  0.5131102E+00 -0.1505208E+00 -0.1276813E-08  0.1862645E-08  0.1276856E-08 -0.7977108E-10
  0.3200000E+01  0.1343778E-08  0.2748493E-08  0.3077726E+01 -0.3035053E+00  0.4848698E-06  0.2729939E-06  0.4686030E+00 -0.2026675E+00 -0.8003553E-08 -0.4452886E-08  0.1256948E-08 -0.1070302E-09
  0.3300000E+01 -0.4140682E-08 -0.2069100E-08  0.3036531E+01 -0.3967204E+00  0.6634968E-06  0.1392909E-06  0.4304828E+00 -0.2681872E+00 -0.2356528E-07 -0.4583853E-08  0.1242655E-08 -0.1417464E-09
  0.3400000E+01 -0.3436820E-08 -0.9304131E-09  0.2970709E+01 -0.5133595E+00  0.4733310E-06  0.1022709E-06  0.3715979E+00 -0.3484350E+00  0.1848949E-07  0.1513399E-08  0.1217590E-08 -0.1841620E-09
  0.3500000E+01  0.1065200E-07 -0.1419721E-08  0.2885288E+01 -0.6600551E+00  0.2804611E-06  0.2817251E-07  0.3034849E+00 -0.4498706E+00  0.2567789E-07  0.3899913E-08  0.1185760E-08 -0.2385004E-09
  0.3600000E+01  0.1252475E-07 -0.7548806E-09  0.2778314E+01 -0.8502361E+00 -0.5965639E-06 -0.1407461E-06  0.2172160E+00 -0.5844890E+00 -0.1177088E-07  0.1658918E-08  0.1144575E-08 -0.3092783E-09
  0.3700000E+01  0.1200336E-07  0.1356966E-08  0.2679801E+01 -0.1084903E+01  0.2481849E-06 -0.1244480E-06  0.1405940E+00 -0.7548316E+00 -0.3146360E-08 -0.5326001E-08  0.1105753E-08 -0.3969633E-09
  0.3800000E+01  0.1386261E-08  0.2254274E-07  0.2575991E+01 -0.1382355E+01 -0.2512120E-06  0.4464528E-06  0.5933639E-01 -0.9690216E+00 -0.1225424E-09  0.8789357E-08  0.1065020E-08 -0.5068833E-09
  0.3900000E+01 -0.3693761E-07  0.4911271E-09  0.2475884E+01 -0.1741871E+01  0.4592137E-06 -0.2403976E-06 -0.1933092E-01 -0.1218438E+01 -0.8477423E-08  0.6228220E-08  0.1026548E-08 -0.6431610E-09
  0.4000000E+01 -0.3754212E-07  0.5216862E-08  0.2367214E+01 -0.2191065E+01 -0.6007031E-06  0.1641689E-05 -0.1034059E+00 -0.1534279E+01 -0.1373701E-07  0.6170012E-08  0.9840279E-09 -0.8113265E-09
  0.4100000E+01  0.1061580E-07 -0.1315493E-07  0.2258456E+01 -0.2719406E+01  0.2793968E-07  0.2342043E-05 -0.1864404E+00 -0.1916409E+01  0.1419699E-07  0.9953510E-08  0.9414788E-09 -0.1012062E-08
  0.4200000E+01  0.4223520E-08  0.1134686E-07  0.2093100E+01 -0.3502221E+01  0.1982830E-05 -0.7930212E-06 -0.3122569E+00 -0.2482379E+01  0.2073302E-07  0.1245644E-07  0.8777181E-09 -0.1309811E-08
  0.4300000E+01  0.9000190E-08  0.1345688E-07  0.1922702E+01 -0.4368171E+01  0.1086615E-05  0.1115724E-05 -0.4396582E+00 -0.3085178E+01 -0.1981768E-07  0.1979060E-07  0.8112990E-09 -0.1642138E-08
  0.4400000E+01 -0.9948218E-08  0.1036278E-06  0.1727265E+01 -0.5451964E+01 -0.6030314E-06 -0.5608890E-06 -0.5848982E+00 -0.3834420E+01  0.2942133E-07 -0.4190952E-07  0.7347329E-09 -0.2059177E-08
  0.4500000E+01  0.8478916E-08  0.7310882E-07  0.1551022E+01 -0.6729462E+01  0.8713040E-06 -0.4894566E-05 -0.7198350E+00 -0.4721117E+01 -0.2628399E-07  0.8405186E-07  0.6655642E-09 -0.2549912E-08
  0.4600000E+01  0.1169848E-07  0.6504706E-07  0.1377185E+01 -0.8273678E+01 -0.2063082E-06 -0.1466600E-05 -0.8501562E+00 -0.5801119E+01  0.7288611E-08  0.1315493E-07  0.5963960E-09 -0.3142520E-08
  0.4700000E+01 -0.7687746E-08 -0.4231697E-07  0.1209203E+01 -0.9996910E+01  0.3093180E-06 -0.2165092E-05 -0.9823177E+00 -0.7060693E+01 -0.2784060E-07 -0.7136259E-07  0.5292958E-09 -0.3810673E-08
  0.4800000E+01  0.1509155E-07 -0.2157321E-07  0.8785051E+00 -0.1236370E+02  0.4293785E-06  0.5862676E-06 -0.1222210E+01 -0.8741431E+01  0.1843243E-07  0.4074536E-08  0.3996262E-09 -0.4722761E-08
  0.4900000E+01  0.1202760E-08  0.1415247E-06  0.6632755E+00 -0.1509489E+02  0.1921376E-05 -0.4034955E-06 -0.1373224E+01 -0.1062242E+02  0.3202609E-07 -0.1040753E-06  0.3136500E-09 -0.5786989E-08
  0.5000000E+01  0.5995389E-09  0.1216831E-06  0.5176914E+00 -0.1852379E+02 -0.2327934E-05  0.1091021E-04 -0.1472551E+01 -0.1298252E+02 -0.2328306E-07 -0.1722947E-07  0.2551278E-09 -0.7134623E-08
Zone t="Motion of body    1 in DoF   3",I=    21,F=POINT
  0.3000000E+01  0.2238279E-03 -0.2185464E-02 -0.6051423E-05 -0.2656854E-03  0.7189043E+02  0.1545447E+04 -0.7450581E-07  0.1144707E-03  0.2009710E-02  0.8300781E-02 -0.4381680E-13  0.2287948E-11
  0.3100000E+01 -0.5854907E-03 -0.3042966E-02 -0.2959202E-07  0.9192154E-04  0.3868974E+02  0.1465468E+04  0.7412126E-05  0.1747012E-03 -0.4448429E-03 -0.1056790E-01 -0.5844787E-13 -0.3730349E-12
  0.3200000E+01 -0.4103500E-03  0.9461328E-02 -0.3822497E-05 -0.1158835E-03  0.1653136E+02  0.1397326E+04 -0.6887130E-05  0.3013760E-04  0.1421273E-02 -0.1080036E-02  0.7993606E-13  0.2440714E-11
  0.3300000E+01 -0.1453762E-02 -0.6082587E-02 -0.1050066E-04  0.1229718E-03  0.3733600E+01  0.1324180E+04 -0.3896880E-05 -0.9693950E-04 -0.9892203E-03 -0.3607273E-02 -0.9689219E-14 -0.5151435E-12
  0.3400000E+01  0.7202958E-04 -0.7864673E-02 -0.9678906E-05  0.3147260E-03 -0.1577719E+02  0.1256326E+04 -0.4356398E-05  0.1866743E-04  0.9428753E-03 -0.1892388E-02  0.8254835E-13  0.1438849E-12
  0.3500000E+01 -0.4148569E-03 -0.4448101E-02 -0.1625078E-04  0.1066404E-03 -0.2026227E+02  0.1199187E+04  0.1192093E-05 -0.2478026E-03  0.1497677E-02  0.3926754E-03  0.8120489E-14  0.7496226E-12
  0.3600000E+01 -0.4153471E-03  0.9348605E-02  0.2335291E-05 -0.1238695E-03 -0.2102661E+02  0.1158915E+04 -0.8278423E-08 -0.1334064E-03  0.4423989E-03 -0.1177719E-01  0.7993606E-13  0.2380318E-12
  0.3700000E+01 -0.1097434E-02  0.1452230E-01 -0.7752757E-05  0.5906203E-04 -0.2253413E+02  0.1109914E+04 -0.4776426E-05  0.1270117E-03  0.3046603E-03 -0.6909013E-02 -0.1171435E-12  0.9601209E-12
  0.3800000E+01 -0.7172419E-03 -0.1949009E-02  0.1828149E-04 -0.2643128E-04 -0.2078508E+02  0.1086519E+04  0.1425414E-04 -0.5292706E-05 -0.5215720E-03  0.1819849E-02 -0.1112560E-12  0.1048939E-11
  0.3900000E+01 -0.8276888E-03  0.1198623E-02 -0.4276920E-06 -0.1044566E-03 -0.2223189E+02  0.1055795E+04  0.8516587E-05 -0.2452563E-03  0.2034811E-02  0.1601577E-03  0.1730809E-13  0.6004086E-12
  0.4000000E+01 -0.4248507E-04 -0.5719364E-03  0.1329335E-04  0.1489917E-03 -0.1954079E+02  0.1041784E+04 -0.4246831E-05 -0.4332885E-04 -0.2982616E-03 -0.1049042E-03  0.2060574E-12  0.4689582E-12
  0.4100000E+01 -0.1245074E-02  0.1318712E-02 -0.1989952E-04  0.2470563E-03 -0.1612362E+02  0.1030153E+04  0.8875277E-05 -0.1717806E-03  0.8030636E-03 -0.7677674E-03  0.1135135E-12 -0.1323386E-12
  0.4200000E+01  0.3558876E-03  0.3266259E-02 -0.1599602E-04  0.3948690E-04 -0.2211438E+02  0.1009333E+04  0.4307145E-05 -0.1345575E-04  0.5052203E-04 -0.2810717E-02  0.6259544E-13  0.4503065E-12
  0.4300000E+01  0.5001869E-03 -0.2585104E-02  0.1516052E-04  0.7370982E-06 -0.2461447E+02  0.1005828E+04  0.1172340E-04 -0.6726012E-04  0.7724207E-03  0.2463341E-02  0.9831928E-13  0.6355749E-12
  0.4400000E+01 -0.1173024E-02  0.8054104E-02 -0.5211120E-05 -0.6000690E-04 -0.2404419E+02  0.9872598E+03  0.1203946E-04 -0.1707114E-03  0.9851564E-03 -0.5433321E-02  0.5490557E-13 -0.2517986E-12
  0.4500000E+01  0.1227544E-02 -0.1763525E-01 -0.6845480E-05  0.8534451E-04 -0.2519675E+02  0.9826635E+03  0.9391043E-05  0.6639957E-04 -0.1324707E-02  0.9062290E-02  0.3631663E-13 -0.1220801E-11
  0.4600000E+01  0.1535872E-03  0.1372107E-01  0.1094218E-04 -0.6662816E-04 -0.2603314E+02  0.9764119E+03 -0.9620967E-06 -0.4902482E-04 -0.3456551E-03 -0.1068950E-01 -0.4711207E-13  0.8544276E-12
  0.4700000E+01 -0.1675048E-02  0.9083325E-02 -0.8724214E-06  0.1099322E-04 -0.2526649E+02  0.9789691E+03  0.1634372E-04  0.5960464E-05  0.1052948E-02 -0.6533742E-02  0.3174766E-13  0.6408207E-12
  0.4800000E+01 -0.1784755E-03 -0.7643766E-02  0.9355038E-05  0.2782204E-04 -0.2625735E+02  0.9949549E+03  0.6739671E-05  0.1425743E-03  0.4978478E-03  0.4899979E-02 -0.1643130E-12 -0.2731149E-12
  0.4900000E+01  0.7686596E-03 -0.5006740E-02  0.5009233E-05 -0.9470625E-04 -0.3016873E+02  0.1000364E+04 -0.1876634E-04 -0.4711002E-04  0.2870754E-05  0.1866221E-02  0.2247635E-13 -0.1501022E-12
  0.5000000E+01 -0.3308737E-02  0.1044056E-01  0.7147016E-05 -0.2207293E-04 -0.3628716E+02  0.1007838E+04  0.7154048E-05  0.1414418E-03  0.1986885E-02 -0.6848097E-02 -0.9592327E-14  0.6181722E-12
Zone t="Motion of body    1 in DoF   4",I=    21,F=POINT
  0.3000000E+01 -0.2920618E-06 -0.6839400E-09  0.2454025E+02  0.3279844E+00  0.5504116E-05 -0.2589659E-06  0.2047460E+02  0.2137985E+00  0.5029142E-07  0.1688022E-08  0.9632779E-08  0.1086349E-09
  0.3100000E+01  0.6104764E-07 -0.2148226E-08  0.2485678E+02  0.4414256E+00 -0.1333293E-04 -0.6359187E-06  0.2066123E+02  0.2934425E+00  0.1802560E-08 -0.2270099E-08  0.9760684E-08  0.1531798E-09
  0.3200000E+01 -0.3499918E-06 -0.3726200E-08  0.2581636E+02  0.5751576E+00  0.9418000E-06 -0.2342858E-06  0.2126513E+02  0.3864776E+00 -0.1644366E-06  0.9837095E-08  0.1011213E-07  0.1990401E-09
  0.3300000E+01  0.7930353E-07 -0.1000444E-08  0.2659377E+02  0.7811947E+00 -0.2187649E-04  0.1264969E-05  0.2183028E+02  0.5259464E+00 -0.1015988E-07 -0.7334165E-08  0.1041640E-07  0.2780740E-09
  0.3400000E+01  0.7397509E-07  0.4762114E-08  0.2737059E+02  0.1075634E+01 -0.9727391E-05 -0.4500616E-06  0.2227672E+02  0.7293718E+00 -0.1342200E-06  0.3608875E-08  0.1073475E-07  0.3976019E-09
  0.3500000E+01  0.1279196E-06 -0.1284207E-07  0.2802728E+02  0.1382087E+01  0.2563426E-04 -0.1022592E-05  0.2264891E+02  0.9438213E+00 -0.2900405E-07  0.3725290E-08  0.1101486E-07  0.5048116E-09
  0.3600000E+01  0.1206920E-06 -0.9858923E-09  0.2875412E+02  0.1724992E+01 -0.1415610E-04 -0.1495471E-05  0.2318371E+02  0.1192658E+01  0.4035731E-07 -0.5558832E-07  0.1128987E-07  0.6333331E-09
  0.3700000E+01 -0.1067167E-06 -0.8614734E-08  0.2952927E+02  0.2214641E+01 -0.1945407E-04  0.2354616E-05  0.2384244E+02  0.1543837E+01 -0.1842508E-06  0.2619345E-08  0.1158725E-07  0.7972851E-09
  0.3800000E+01  0.2293918E-06 -0.1076478E-07  0.3059159E+02  0.2785147E+01  0.3413542E-05  0.5003996E-05  0.2461649E+02  0.1943265E+01  0.4475250E-06 -0.2142042E-07  0.1198692E-07  0.1025913E-08
  0.3900000E+01  0.1860854E-06 -0.2547677E-07  0.3153774E+02  0.3692116E+01  0.2365082E-04  0.2521556E-05  0.2506869E+02  0.2591419E+01 -0.2779639E-06  0.1583248E-07  0.1241693E-07  0.1376815E-08
  0.4000000E+01 -0.7211929E-07  0.6049231E-07  0.3274779E+02  0.4656152E+01 -0.7040799E-06 -0.3340654E-05  0.2580050E+02  0.3277398E+01 -0.1573935E-06  0.5436596E-07  0.1284755E-07  0.1740689E-08
  0.4100000E+01 -0.1270631E-06 -0.2023444E-07  0.3373579E+02  0.5948370E+01  0.2075168E-04 -0.2466608E-05  0.2653409E+02  0.4175146E+01 -0.3043835E-07 -0.8207280E-07  0.1323342E-07  0.2217100E-08
  0.4200000E+01  0.2744769E-06 -0.5806942E-07  0.3618659E+02  0.7984352E+01 -0.1581474E-04 -0.3000256E-05  0.2832402E+02  0.5568493E+01  0.3845032E-06 -0.8451752E-07  0.1419785E-07  0.2989151E-08
  0.4300000E+01 -0.6935307E-06 -0.1228036E-06  0.3783186E+02  0.1051256E+02  0.1117847E-04  0.2742745E-06  0.2931070E+02  0.7391826E+01 -0.1256202E-06  0.2677552E-07  0.1488904E-07  0.3972368E-08
  0.4400000E+01  0.1388253E-06 -0.8755887E-07  0.3965266E+02  0.1280132E+02  0.2227385E-04  0.2511311E-05  0.3039144E+02  0.8972939E+01  0.2789734E-06  0.5378388E-07  0.1559295E-07  0.4891437E-08
  0.4500000E+01 -0.4223419E-06 -0.1099834E-06  0.4098308E+02  0.1670610E+02  0.2148002E-04  0.4527625E-05  0.3117320E+02  0.1174139E+02 -0.8899305E-07  0.4190952E-07  0.1609012E-07  0.6325173E-08
  0.4600000E+01  0.1331184E-07 -0.1487351E-06  0.4249882E+02  0.2101805E+02 -0.3641066E-05 -0.7188879E-05  0.3213119E+02  0.1481181E+02 -0.1000160E-06  0.1804437E-06  0.1672147E-07  0.8001952E-08
  0.4700000E+01 -0.3142657E-06  0.1582812E-06  0.4375751E+02  0.2503840E+02  0.3884448E-04 -0.1483504E-04  0.3317439E+02  0.1765717E+02 -0.1208738E-06 -0.9103678E-07  0.1719714E-07  0.9486610E-08
  0.4800000E+01 -0.1709304E-06 -0.2288725E-06  0.4677647E+02  0.2613157E+02  0.1146148E-04 -0.5097548E-04  0.3526834E+02  0.1844691E+02 -0.8925174E-07 -0.1639128E-06  0.1841195E-07  0.9919172E-08
  0.4900000E+01 -0.7042177E-06  0.7773633E-07  0.4947572E+02  0.3393768E+02 -0.1621794E-04  0.2811803E-04  0.3696603E+02  0.2377909E+02 -0.2121135E-06  0.2377201E-06  0.1944168E-07  0.1293828E-07
  0.5000000E+01  0.9188661E-06 -0.5179027E-06  0.5222906E+02  0.4601584E+02  0.1065731E-04 -0.3923662E-05  0.3866302E+02  0.3235347E+02 -0.1125038E-06  0.2216548E-06  0.2053592E-07  0.1767724E-07
Zone t="Motion of body    1 in DoF   5",I=    21,F=POINT
  0.3000000E+01 -0.2454109E+02 -0.3278215E+00  0.7853669E-07  0.3637979E-11 -0.3696680E-03 -0.1708294E-02  0.7233272E-07 -0.4190952E-08  0.2047568E+02  0.2134015E+00 -0.8141636E-15 -0.1332268E-14
  0.3100000E+01 -0.2485632E+02 -0.4414892E+00  0.4253384E-07  0.6433766E-08 -0.2849294E-03 -0.3327929E-02 -0.1679385E-06  0.1216540E-07  0.2066119E+02  0.2931234E+00 -0.3581365E-14  0.8187895E-15
  0.3200000E+01 -0.2581657E+02 -0.5751953E+00  0.3707737E-06  0.8327333E-08  0.1969021E-02 -0.1011181E-01 -0.8498318E-07 -0.5471520E-08  0.2126576E+02  0.3864961E+00 -0.3684553E-13 -0.2359224E-15
  0.3300000E+01 -0.2659469E+02 -0.7813283E+00  0.1825604E-08 -0.4640242E-08 -0.2096097E-02  0.5125739E-02  0.2215419E-06  0.1402805E-07  0.2183134E+02  0.5257326E+00 -0.9695948E-13  0.3053113E-15
  0.3400000E+01 -0.2737145E+02 -0.1075491E+01  0.2843615E-07  0.2803063E-08  0.4306961E-03  0.5294222E-02  0.8847564E-07  0.2799788E-07  0.2227805E+02  0.7294605E+00 -0.3742104E-13  0.1221245E-14
  0.3500000E+01 -0.2802807E+02 -0.1381731E+01 -0.1072476E-06 -0.2184606E-07 -0.3893035E-04  0.2611145E-02  0.2980232E-06 -0.2270099E-08  0.2264959E+02  0.9436426E+00 -0.7968229E-13  0.1609823E-14
  0.3600000E+01 -0.2875403E+02 -0.1723684E+01  0.1815917E-06  0.1549051E-07  0.2676828E-02 -0.8251116E-02 -0.5148144E-07 -0.1234002E-07  0.2318357E+02  0.1191598E+01 -0.8450031E-14 -0.4218847E-14
  0.3700000E+01 -0.2953041E+02 -0.2213881E+01  0.3955840E-06 -0.9844371E-08  0.3537761E-02 -0.6227866E-02 -0.3388000E-06 -0.1298031E-07  0.2384317E+02  0.1543416E+01  0.5011007E-13 -0.8659740E-14
  0.3800000E+01 -0.3059088E+02 -0.2784320E+01  0.2144723E-06 -0.5667971E-08  0.4942950E-03  0.1272183E-02 -0.4583087E-07  0.7101335E-08  0.2461596E+02  0.1941810E+01  0.1536782E-13  0.9159340E-14
  0.3900000E+01 -0.3153524E+02 -0.3690809E+01  0.4115207E-06  0.2407978E-07  0.8999078E-03  0.5882084E-03  0.3534250E-07 -0.4016329E-07  0.2506672E+02  0.2590637E+01  0.1736503E-13  0.7771561E-15
  0.4000000E+01 -0.3274460E+02 -0.4652725E+01 -0.1143417E-06  0.6984919E-09 -0.1029640E-02  0.3455721E-02 -0.1029111E-06  0.9662472E-08  0.2579835E+02  0.3275113E+01  0.3191891E-13  0.5551115E-15
  0.4100000E+01 -0.3373506E+02 -0.5947535E+01  0.1233860E-06 -0.1316948E-08  0.2227935E-02  0.7730722E-02 -0.2812140E-06  0.3783498E-07  0.2653397E+02  0.4174543E+01  0.4132196E-13  0.1265654E-13
  0.4200000E+01 -0.3618642E+02 -0.7982695E+01 -0.3996788E-06  0.2890738E-07 -0.4431180E-03 -0.8541077E-02 -0.1521160E-06 -0.7683411E-07  0.2832434E+02  0.5567455E+01  0.1863060E-12 -0.1221245E-14
  0.4300000E+01 -0.3783284E+02 -0.1051439E+02 -0.3969018E-06  0.8411007E-08  0.4991542E-03  0.3140926E-02  0.3513035E-06 -0.1038425E-06  0.2931236E+02  0.7393693E+01  0.7451404E-13  0.4662937E-14
  0.4400000E+01 -0.3965137E+02 -0.1279759E+02  0.2277242E-06  0.4409230E-08  0.8751587E-03 -0.4425645E-03  0.8889897E-07  0.9662472E-07  0.3039121E+02  0.8970754E+01  0.1274738E-12  0.1454392E-13
  0.4500000E+01 -0.4098095E+02 -0.1670202E+02 -0.7707987E-07  0.4455360E-06 -0.2997345E-02  0.1360206E-01  0.2301402E-06  0.7986091E-07  0.3117162E+02  0.1174004E+02 -0.6128431E-13 -0.2997602E-14
  0.4600000E+01 -0.4249707E+02 -0.2101539E+02  0.7076660E-07  0.3921741E-07  0.2566058E-02 -0.3327504E-02 -0.1247162E-06  0.1990702E-06  0.3213014E+02  0.1480827E+02  0.6661338E-14  0.5107026E-14
  0.4700000E+01 -0.4376023E+02 -0.2504578E+02 -0.4208228E-06  0.3219902E-06  0.2635438E-02  0.1057929E-01  0.2778116E-06 -0.5098991E-07  0.3317700E+02  0.1766294E+02 -0.8362106E-13  0.2220446E-14
  0.4800000E+01 -0.4677249E+02 -0.2612404E+02 -0.5478250E-06  0.1782173E-06  0.1648068E-03  0.4975304E-02  0.1086543E-07  0.6030314E-07  0.3526529E+02  0.1844226E+02 -0.1445140E-12  0.4796163E-13
  0.4900000E+01 -0.4947236E+02 -0.3393247E+02 -0.3558507E-06 -0.2825982E-07 -0.1805315E-02 -0.2971977E-02 -0.3573238E-07 -0.6170012E-07  0.3696362E+02  0.2377489E+02 -0.3933361E-13  0.4440892E-14
  0.5000000E+01 -0.5223027E+02 -0.4601968E+02  0.7242896E-06  0.2491288E-07  0.2874517E-02  0.1091033E-02  0.5364418E-07 -0.3725290E-08  0.3866427E+02  0.3235445E+02 -0.6190603E-13  0.1372236E-12
Zone t="Motion of body    1 in DoF   6",I=    21,F=POINT
  0.3000000E+01 -0.1205055E-14 -0.5429481E-18  0.9720057E-09 -0.1084672E-09 -0.1746288E-15  0.1220812E-15  0.1041510E-10 -0.7086561E-10 -0.7138387E-15 -0.2581756E-17  0.8697698E-13 -0.2999742E-19
  0.3100000E+01  0.1779491E-14 -0.1761829E-18  0.9373916E-09 -0.1417861E-09 -0.3094523E-15  0.3130634E-16 -0.1340466E-10 -0.9375877E-10 -0.6410083E-15 -0.1788934E-17  0.8696204E-13 -0.3795075E-19
  0.3200000E+01  0.1118897E-14  0.5621758E-17  0.8948772E-09 -0.1883991E-09 -0.2905662E-15  0.2227493E-15 -0.4558909E-10 -0.1258129E-09 -0.4244652E-15  0.1734723E-17  0.8689186E-13 -0.5902182E-19
  0.3300000E+01 -0.1734723E-14 -0.3530010E-17  0.8589044E-09 -0.2465413E-09  0.5440724E-15  0.2101726E-15 -0.7542648E-10 -0.1664951E-09 -0.9343851E-16  0.3591420E-17  0.8686876E-13 -0.9903338E-19
  0.3400000E+01  0.3222504E-14  0.1779193E-17  0.8125415E-09 -0.3196346E-09  0.4752632E-15 -0.2496376E-16 -0.1127510E-09 -0.2169071E-09 -0.8391725E-15  0.7237050E-17  0.8686994E-13 -0.9277217E-19
  0.3500000E+01  0.2293800E-14  0.2414044E-17  0.7583822E-09 -0.4101260E-09 -0.2854859E-15 -0.8979904E-15 -0.1537288E-09 -0.2796378E-09  0.8425800E-17  0.1614106E-16  0.8700220E-13 -0.1370809E-18
  0.3600000E+01  0.1688464E-14  0.4872134E-17  0.6925638E-09 -0.5252181E-09 -0.3753749E-15 -0.1975416E-15 -0.2051422E-09 -0.3614145E-09  0.6298010E-15 -0.4119968E-17  0.8704161E-13 -0.2037268E-18
  0.3700000E+01 -0.1775982E-14 -0.3499093E-17  0.6287030E-09 -0.6690605E-09  0.9962939E-15  0.8268126E-15 -0.2549160E-09 -0.4654071E-09 -0.6528655E-15  0.2003064E-16  0.8701690E-13 -0.2053267E-18
  0.3800000E+01  0.7249318E-15  0.1441311E-16  0.5578132E-09 -0.8494222E-09 -0.4300288E-15  0.5663872E-15 -0.3091850E-09 -0.5954466E-09  0.1004314E-15 -0.5312591E-17  0.8696466E-13 -0.3366460E-18
  0.3900000E+01  0.1144028E-14  0.1898794E-16  0.4886660E-09 -0.1070962E-08  0.6227213E-15 -0.3079134E-15 -0.3587600E-09 -0.7490924E-09 -0.2286277E-15 -0.1301043E-16  0.8694736E-13 -0.5778771E-18
  0.4000000E+01 -0.1153591E-14  0.8953138E-17  0.4108470E-09 -0.1344975E-08 -0.4510281E-16  0.5860113E-15 -0.4154810E-09 -0.9420933E-09 -0.1866996E-15  0.2358140E-17  0.8691246E-13 -0.4759548E-18
  0.4100000E+01  0.7057363E-15 -0.1509921E-16  0.3353040E-09 -0.1670943E-08 -0.5974219E-15 -0.4687006E-15 -0.4725597E-09 -0.1176553E-08 -0.7480466E-15 -0.3480289E-16  0.8690824E-13 -0.3990099E-18
  0.4200000E+01  0.2086625E-14  0.1661032E-16  0.2159969E-09 -0.2147236E-08 -0.8045813E-15 -0.5432937E-15 -0.5627275E-09 -0.1520660E-08 -0.3355864E-15 -0.1837723E-16  0.8686537E-13 -0.7882044E-18
  0.4300000E+01  0.1179612E-14 -0.3137410E-17  0.1068273E-09 -0.2682378E-08 -0.3392796E-15 -0.1984090E-14 -0.6409818E-09 -0.1893557E-08  0.4691822E-15 -0.1106428E-15  0.8688796E-13 -0.4090272E-18
  0.4400000E+01  0.1236385E-14 -0.4812502E-16 -0.1638272E-10 -0.3329557E-08 -0.1483977E-14  0.1426160E-14 -0.7283570E-09 -0.2341851E-08  0.4815829E-15 -0.1300501E-15  0.8698063E-13 -0.8822122E-18
  0.4500000E+01 -0.1014621E-14  0.2762683E-16 -0.1234609E-09 -0.4105393E-08  0.3500286E-15  0.1179043E-14 -0.8056761E-09 -0.2879838E-08 -0.2018062E-15 -0.8273818E-17  0.8702869E-13 -0.1987876E-17
  0.4600000E+01 -0.3213010E-14  0.2241249E-16 -0.2311822E-09 -0.5028157E-08  0.9590004E-15 -0.5497556E-14 -0.8832778E-09 -0.3526158E-08  0.8421894E-15  0.8380883E-16  0.8700410E-13 -0.1475503E-17
  0.4700000E+01  0.1122034E-14 -0.8393080E-16 -0.3303360E-09 -0.6043984E-08  0.6658386E-15 -0.6134416E-14 -0.9626318E-09 -0.4267721E-08 -0.7736129E-15 -0.1393742E-15  0.8701573E-13 -0.3602032E-17
  0.4800000E+01  0.1957346E-14  0.3310882E-16 -0.5300779E-09 -0.7365382E-08  0.1158651E-14 -0.3021617E-14 -0.1105769E-08 -0.5208033E-08  0.2679786E-15  0.3960048E-16  0.8698070E-13 -0.3989040E-17
  0.4900000E+01 -0.6060911E-15 -0.3052961E-16 -0.6643223E-09 -0.9006312E-08  0.1714190E-14 -0.3058534E-14 -0.1196659E-08 -0.6335142E-08 -0.4882007E-15  0.1858323E-15  0.8695809E-13 -0.5796713E-17
  0.5000000E+01 -0.3813616E-14  0.4593290E-16 -0.7585784E-09 -0.1106379E-07 -0.1360023E-15 -0.5664590E-14 -0.1257590E-08 -0.7752290E-08  0.2210038E-15  0.1369957E-15  0.8691445E-13 -0.5505091E-17
