VARIABLES="w (rad/s)"
"abs(F   1   1)" "angle(F   1   1)"
"abs(F   1   2)" "angle(F   1   2)"
"abs(F   1   3)" "angle(F   1   3)"
"abs(F   1   4)" "angle(F   1   4)"
"abs(F   1   5)" "angle(F   1   5)"
"abs(F   1   6)" "angle(F   1   6)"
Zone t="Diffraction force - beta =   0.000 deg",I=    21,F=POINT
  0.3000000E+01  0.3177168E+02 -0.1566509E+01  0.6162996E-05 -0.1295657E+00  0.3926711E+02 -0.2965982E+01  0.2289328E-06  0.1260745E+01  0.3338994E+01  0.1574663E+01  0.4782987E-13 -0.2878598E+01
  0.3100000E+01  0.3388064E+02 -0.1565624E+01  0.1623287E-05 -0.1590178E+00  0.4164368E+02 -0.2957691E+01  0.2322480E-06 -0.2194396E+01  0.3563724E+01  0.1575460E+01  0.4270651E-13 -0.1866237E+01
  0.3200000E+01  0.3604805E+02 -0.1564598E+01  0.5801348E-05 -0.1804566E+00  0.4392035E+02 -0.2948769E+01  0.8544793E-06 -0.3093686E+01  0.3792492E+01  0.1576387E+01  0.5163671E-13 -0.2034444E+01
  0.3300000E+01  0.3839078E+02 -0.1563428E+01  0.3986373E-05 -0.3073789E+01  0.4621292E+02 -0.2939847E+01  0.3100609E-06 -0.1869394E+00  0.4040215E+01  0.1577445E+01  0.2780438E-13  0.1107149E+01
  0.3400000E+01  0.4083944E+02 -0.1562091E+01  0.1789471E-05 -0.2544063E+01  0.4855046E+02 -0.2931129E+01  0.6510455E-06 -0.5789763E+00  0.4300008E+01  0.1578654E+01  0.7315485E-13  0.1063698E+01
  0.3500000E+01  0.4335000E+02 -0.1560564E+01  0.1607962E-05 -0.6684090E+00  0.5093672E+02 -0.2922718E+01  0.3800735E-06 -0.2529461E+01  0.4565189E+01  0.1580036E+01  0.7125383E-13  0.1645656E+01
  0.3600000E+01  0.4592465E+02 -0.1558829E+01  0.4075571E-05 -0.1223607E+01  0.5338259E+02 -0.2914697E+01  0.3446778E-07 -0.1689286E+01  0.4839020E+01  0.1581605E+01  0.6456269E-13 -0.1708802E+01
  0.3700000E+01  0.4854269E+02 -0.1556864E+01  0.7905559E-05  0.2783642E+01  0.5565314E+02 -0.2905829E+01  0.6789135E-06  0.2226335E+01  0.5113925E+01  0.1583388E+01  0.2197232E-13 -0.1325818E+01
  0.3800000E+01  0.5123096E+02 -0.1554651E+01  0.1968168E-05  0.1912674E+01  0.5793889E+02 -0.2897161E+01  0.1454365E-05  0.2456119E+01  0.5398986E+01  0.1585393E+01  0.4782987E-13 -0.1307802E+01
  0.3900000E+01  0.5396162E+02 -0.1552164E+01  0.4134526E-05  0.1030918E+01  0.6024211E+02 -0.2888740E+01  0.4120163E-06  0.2722565E+01  0.5690891E+01  0.1587644E+01  0.6204548E-13 -0.1158386E+01
  0.4000000E+01  0.5672110E+02 -0.1549377E+01  0.1470439E-05 -0.1366383E+01  0.6256776E+02 -0.2880657E+01  0.1229048E-05  0.2827825E+01  0.5985818E+01  0.1590166E+01  0.7471265E-13  0.1885028E+01
  0.4100000E+01  0.5965483E+02 -0.1546308E+01  0.1020980E-04 -0.2996503E+01  0.6492682E+02 -0.2872988E+01  0.9402899E-06  0.2968262E+01  0.6298447E+01  0.1592948E+01  0.3241547E-13 -0.1735945E+01
  0.4200000E+01  0.6268119E+02 -0.1542913E+01  0.5374114E-05  0.2801291E+01  0.6720400E+02 -0.2865146E+01  0.6524615E-06  0.1713665E+01  0.6619098E+01  0.1596031E+01  0.4158345E-13 -0.1222025E+01
  0.4300000E+01  0.6582228E+02 -0.1539178E+01  0.2611451E-05  0.2838846E+01  0.6935122E+02 -0.2856859E+01  0.8629523E-06  0.2011637E+01  0.6949507E+01  0.1599431E+01  0.1421529E-12  0.1545802E+01
  0.4400000E+01  0.6906286E+02 -0.1535074E+01  0.1822373E-04 -0.5569850E+00  0.7148375E+02 -0.2848791E+01  0.7887563E-06 -0.1064684E+00  0.7292606E+01  0.1603166E+01  0.1039586E-12 -0.1865526E+01
  0.4500000E+01  0.7238150E+02 -0.1530574E+01  0.6288291E-05  0.9903108E+00  0.7360860E+02 -0.2841005E+01  0.1067959E-05  0.1498899E+01  0.7645535E+01  0.1607261E+01  0.1143648E-12 -0.1679738E+01
  0.4600000E+01  0.7571902E+02 -0.1525631E+01  0.1067302E-04  0.1658517E+01  0.7572802E+02 -0.2833588E+01  0.1500640E-05  0.2970871E+01  0.8000318E+01  0.1611762E+01  0.1854571E-12  0.1862253E+01
  0.4700000E+01  0.7910521E+02 -0.1520230E+01  0.9620327E-05 -0.1179252E+01  0.7784291E+02 -0.2826592E+01  0.1273460E-05 -0.2141772E+00  0.8360869E+01  0.1616682E+01  0.2203828E-12 -0.1538549E+01
  0.4800000E+01  0.8250919E+02 -0.1514332E+01  0.1244479E-04  0.3312642E+00  0.7995361E+02 -0.2820030E+01  0.1130239E-05 -0.1582642E+01  0.8725626E+01  0.1622051E+01  0.1176158E-12 -0.1134169E+01
  0.4900000E+01  0.8590942E+02 -0.1507910E+01  0.9619200E-05 -0.5636178E+00  0.8180130E+02 -0.2812430E+01  0.1345956E-05  0.1453329E+01  0.9084278E+01  0.1627917E+01  0.1706782E-12  0.1612439E+01
  0.5000000E+01  0.8937403E+02 -0.1500965E+01  0.5806044E-05 -0.1206018E+01  0.8362452E+02 -0.2805126E+01  0.1805604E-05  0.1547388E-02  0.9453591E+01  0.1634251E+01  0.3826390E-13 -0.1951303E+01
