VARIABLES="w (rad/s)"
"abs(F   1   1)" "angle(F   1   1)"
"abs(F   1   2)" "angle(F   1   2)"
"abs(F   1   3)" "angle(F   1   3)"
"abs(F   1   4)" "angle(F   1   4)"
"abs(F   1   5)" "angle(F   1   5)"
"abs(F   1   6)" "angle(F   1   6)"
Zone t="Diffraction force - beta =   0.000 deg",I=    21,F=POINT
  0.3000000E+01  0.8307237E+02 -0.1569156E+01  0.8340086E-04 -0.1055284E-01  0.4022132E+03 -0.1705729E-01  0.1913117E-04  0.9552252E-02  0.7873996E+01  0.1572436E+01  0.2099786E-12  0.2083647E+01
  0.3100000E+01  0.8844541E+02 -0.1568815E+01  0.1096664E-03 -0.2513731E-02  0.3965724E+03 -0.1920384E-01  0.3234924E-05 -0.6830250E-01  0.8389584E+01  0.1572777E+01  0.7109866E-13 -0.2914794E+01
  0.3200000E+01  0.9395580E+02 -0.1568418E+01  0.7337234E-04 -0.1327738E-01  0.3909577E+03 -0.2152956E-01  0.3471559E-04 -0.1041217E-02  0.8916515E+01  0.1573175E+01  0.4097074E-12 -0.2851381E+01
  0.3300000E+01  0.9971774E+02 -0.1567959E+01  0.1038082E-03 -0.3137878E+01  0.3852527E+03 -0.2403885E-01  0.1294102E-04 -0.5226606E-02  0.9469496E+01  0.1573633E+01  0.1995933E-12  0.2777614E+01
  0.3400000E+01  0.1056590E+03 -0.1567431E+01  0.7066378E-04 -0.1373361E-01  0.3794311E+03 -0.2673489E-01  0.8919978E-05 -0.3720415E-01  0.1004142E+02  0.1574162E+01  0.9237054E-13  0.0000000E+00
  0.3500000E+01  0.1117328E+03 -0.1566826E+01  0.1670097E-03 -0.5013258E-02  0.3734900E+03 -0.2961677E-01  0.1323965E-04 -0.3124974E+01  0.1062534E+02  0.1574766E+01  0.4539279E-13  0.1037088E+01
  0.3600000E+01  0.1179384E+03 -0.1566136E+01  0.6715178E-04 -0.3083727E+01  0.3674207E+03 -0.3268939E-01  0.2428333E-05 -0.3136990E+01  0.1122430E+02  0.1575456E+01  0.5020056E-12 -0.2942115E+01
  0.3700000E+01  0.1242520E+03 -0.1565353E+01  0.7739376E-04  0.3105400E+01  0.3614691E+03 -0.3597149E-01  0.8505386E-05  0.6095969E-01  0.1183047E+02  0.1576239E+01  0.1120232E-12 -0.2048628E+01
  0.3800000E+01  0.1306974E+03 -0.1564468E+01  0.6820196E-04  0.3118936E+01  0.3554406E+03 -0.3945845E-01  0.2668525E-05  0.3380646E+00  0.1245265E+02  0.1577124E+01  0.1261714E-12 -0.2816154E-01
  0.3900000E+01  0.1372436E+03 -0.1563471E+01  0.7986109E-05  0.5198984E+00  0.3493351E+03 -0.4315415E-01  0.1389955E-04  0.9372296E-02  0.1308729E+02  0.1578122E+01  0.5120470E-12 -0.1252156E+00
  0.4000000E+01  0.1438737E+03 -0.1562352E+01  0.1483698E-03 -0.8926067E-02  0.3431489E+03 -0.4705678E-01  0.5842773E-05  0.3069313E+01  0.1373025E+02  0.1579240E+01  0.6257722E-13 -0.1137921E+00
  0.4100000E+01  0.1507296E+03 -0.1561105E+01  0.1447718E-04 -0.9645186E-01  0.3368716E+03 -0.5117148E-01  0.2075218E-04  0.3132218E+01  0.1439597E+02  0.1580487E+01  0.1485039E-12 -0.2500484E+01
  0.4200000E+01  0.1577264E+03 -0.1559716E+01  0.9522602E-04  0.1752687E-01  0.3306277E+03 -0.5550659E-01  0.4742500E-05  0.2984794E+01  0.1507442E+02  0.1581876E+01  0.1287338E-12 -0.6876712E+00
  0.4300000E+01  0.1648827E+03 -0.1558176E+01  0.1931878E-04  0.3124911E+01  0.3244720E+03 -0.6007485E-01  0.2082683E-04  0.3104648E+01  0.1576708E+02  0.1583416E+01  0.3438064E-12  0.4035350E+00
  0.4400000E+01  0.1721792E+03 -0.1556470E+01  0.6055575E-04 -0.2983853E+01  0.3182838E+03 -0.6487057E-01  0.2311649E-04 -0.3136909E+01  0.1647650E+02  0.1585122E+01  0.1980698E-12 -0.9703563E+00
  0.4500000E+01  0.1795909E+03 -0.1554589E+01  0.2534321E-03  0.2327854E-01  0.3120580E+03 -0.6989694E-01  0.2197781E-04  0.4426516E-01  0.1719953E+02  0.1587003E+01  0.4529710E-12 -0.2704255E+01
  0.4600000E+01  0.1870544E+03 -0.1552518E+01  0.1365035E-04  0.2325024E+01  0.3057919E+03 -0.7514641E-01  0.3023388E-05  0.3083572E+01  0.1792780E+02  0.1589073E+01  0.4752277E-12  0.2822206E+01
  0.4700000E+01  0.1945955E+03 -0.1550248E+01  0.3440323E-04 -0.2394767E+00  0.2994849E+03 -0.8061577E-01  0.1268923E-04 -0.2035927E-01  0.1866492E+02  0.1591345E+01  0.3826402E-13 -0.3805040E+00
  0.4800000E+01  0.2021787E+03 -0.1547763E+01  0.1395697E-04  0.2815411E+01  0.2931383E+03 -0.8630975E-01  0.1064434E-04 -0.3042650E+01  0.1940891E+02  0.1593831E+01  0.2815400E-12 -0.1393200E+01
  0.4900000E+01  0.2097784E+03 -0.1545057E+01  0.1878956E-03 -0.2445829E-01  0.2870387E+03 -0.9225196E-01  0.6368100E-05  0.2128592E+00  0.2014904E+02  0.1596538E+01  0.3370400E-12  0.9652517E+00
  0.5000000E+01  0.2174576E+03 -0.1542115E+01  0.1317040E-04 -0.2667826E+01  0.2809286E+03 -0.9843642E-01  0.7825202E-06  0.3362850E-01  0.2090171E+02  0.1599481E+01  0.6153890E-12 -0.2511948E+01
