VARIABLES="w (rad/s)"
"abs(F   1   1)" "angle(F   1   1)"
"abs(F   1   2)" "angle(F   1   2)"
"abs(F   1   3)" "angle(F   1   3)"
"abs(F   1   4)" "angle(F   1   4)"
"abs(F   1   5)" "angle(F   1   5)"
"abs(F   1   6)" "angle(F   1   6)"
Zone t="FKforce - beta =   0.000",I=    21,F=POINT
  0.3000000E+01  0.5130087E+02 -0.1570796E+01  0.7728492E-04 -0.1084546E-02  0.4408179E+03  0.4056412E-09  0.1906048E-04 -0.1850628E-02  0.4535016E+01  0.1570796E+01  0.2034995E-12  0.1853892E+01
  0.3100000E+01  0.5456505E+02 -0.1570796E+01  0.1080632E-03 -0.1723662E-03  0.4374408E+03  0.4496502E-08  0.3363160E-05 -0.9588462E-02  0.4825882E+01  0.1570796E+01  0.6204548E-13  0.2729182E+01
  0.3200000E+01  0.5790818E+02 -0.1570796E+01  0.6765876E-04  0.9910800E-03  0.4339735E+03 -0.2197540E-08  0.3556907E-04  0.1341904E-03  0.5124058E+01  0.1570797E+01  0.3762523E-12 -0.2951604E+01
  0.3300000E+01  0.6132759E+02 -0.1570796E+01  0.9983039E-04 -0.3140436E+01  0.4304170E+03  0.1869495E-08  0.1263619E-04 -0.7923053E-03  0.5429332E+01  0.1570796E+01  0.2042424E-12  0.2913490E+01
  0.3400000E+01  0.6482054E+02 -0.1570796E+01  0.7213653E-04  0.5035116E-03  0.4267747E+03  0.2164777E-08  0.8368900E-05  0.2921202E-02  0.5741484E+01  0.1570797E+01  0.8556068E-13 -0.8441540E+00
  0.3500000E+01  0.6838424E+02 -0.1570796E+01  0.1657457E-03  0.9608466E-03  0.4230477E+03 -0.1408934E-09  0.1292676E-04 -0.3141467E+01  0.6060263E+01  0.1570796E+01  0.4278034E-13 -0.8441540E+00
  0.3600000E+01  0.7201573E+02 -0.1570796E+01  0.6842615E-04 -0.3140844E+01  0.4192388E+03  0.7748456E-08  0.2424342E-05  0.3132085E+01  0.6385443E+01  0.1570797E+01  0.4844735E-12 -0.3068195E+01
  0.3700000E+01  0.7571218E+02 -0.1570796E+01  0.6993861E-04  0.3141153E+01  0.4153488E+03 -0.4735667E-08  0.8903467E-05 -0.2248950E-02  0.6716774E+01  0.1570796E+01  0.9664426E-13 -0.2199593E+01
  0.3800000E+01  0.7947049E+02 -0.1570796E+01  0.6752532E-04 -0.3137014E+01  0.4113806E+03 -0.5433349E-08  0.3643508E-05 -0.9777295E-02  0.7053995E+01  0.1570796E+01  0.1214176E-12  0.3587707E+00
  0.3900000E+01  0.8328767E+02 -0.1570796E+01  0.4824027E-05  0.8737388E-01  0.4073365E+03 -0.4024014E-08  0.1427536E-04 -0.2617752E-02  0.7396854E+01  0.1570796E+01  0.4832213E-12 -0.1470482E-01
  0.4000000E+01  0.8716044E+02 -0.1570796E+01  0.1480654E-03  0.7799526E-03  0.4032188E+03  0.4730307E-08  0.4658670E-05  0.3132447E+01  0.7745070E+01  0.1570796E+01  0.1156680E-12 -0.7419473E+00
  0.4100000E+01  0.9108558E+02 -0.1570796E+01  0.2451255E-04  0.3343453E-02  0.3990294E+03 -0.4555909E-08  0.1982509E-04  0.3139960E+01  0.8098396E+01  0.1570796E+01  0.1271058E-12 -0.2677945E+01
  0.4200000E+01  0.9505991E+02 -0.1570796E+01  0.1002774E-03 -0.1244520E-02  0.3947709E+03 -0.5359982E-08  0.4592398E-05  0.3120957E+01  0.8456507E+01  0.1570796E+01  0.9532931E-13 -0.4636476E+00
  0.4300000E+01  0.9908022E+02 -0.1570796E+01  0.1682960E-04 -0.3114474E+01  0.3904456E+03  0.1198365E-07  0.2044440E-04 -0.3141046E+01  0.8819165E+01  0.1570796E+01  0.3127195E-12 -0.2272336E-01
  0.4400000E+01  0.1031427E+03 -0.1570796E+01  0.7527331E-04  0.3139984E+01  0.3860557E+03 -0.8800452E-08  0.2390054E-04 -0.3140570E+01  0.9186028E+01  0.1570797E+01  0.1558342E-12 -0.4228539E+00
  0.4500000E+01  0.1072443E+03 -0.1570796E+01  0.2499156E-03  0.2563868E-02  0.3816042E+03  0.7809746E-09  0.2187976E-04 -0.4235279E-02  0.9556815E+01  0.1570796E+01  0.4055077E-12 -0.2947634E+01
  0.4600000E+01  0.1113813E+03 -0.1570796E+01  0.8439436E-05 -0.3060504E+01  0.3770932E+03  0.5532220E-09  0.1541534E-05 -0.3089915E+01  0.9931204E+01  0.1570796E+01  0.3989177E-12 -0.3070285E+01
  0.4700000E+01  0.1155503E+03 -0.1570796E+01  0.2975917E-04  0.2460060E-01  0.3725250E+03  0.6080066E-08  0.1144224E-04  0.1078463E-02  0.1030891E+02  0.1570796E+01  0.2080083E-12  0.1433730E+01
  0.4800000E+01  0.1197474E+03 -0.1570796E+01  0.2499286E-04  0.3124600E+01  0.3679026E+03  0.5346397E-08  0.1057919E-04  0.3134154E+01  0.1068959E+02  0.1570796E+01  0.1705303E-12 -0.1570796E+01
  0.4900000E+01  0.1239693E+03 -0.1570796E+01  0.1797088E-03  0.3026525E-02  0.3632278E+03  0.4922915E-09  0.6066641E-05  0.1420017E-02  0.1107290E+02  0.1570796E+01  0.2257022E-12  0.4918092E+00
  0.5000000E+01  0.1282120E+03 -0.1570796E+01  0.1380342E-04 -0.3099209E+01  0.3585041E+03 -0.1163815E-08  0.1023794E-05  0.3118621E+01  0.1145855E+02  0.1570796E+01  0.5833378E-12 -0.2546834E+01
