 VARIABLES="Time (s)"
"AddedMass    1" "IRF    1"
"AddedMass    2" "IRF    2"
"AddedMass    3" "IRF    3"
"AddedMass    4" "IRF    4"
"AddedMass    5" "IRF    5"
"AddedMass    6" "IRF    6"
Zone t="DoF    1",I=   100,F=POINT
  0.0000000E+00  0.3984136E+01  0.6332115E+00 -0.6705520E-08 -0.2591039E-09  0.2937194E-06  0.3434004E-05 -0.2420733E-09 -0.5489580E-11 -0.4121339E+00 -0.6063231E-01  0.1978071E-14 -0.1971277E-15
  0.1000000E+00  0.3984136E+01  0.5705556E+00 -0.6705520E-08 -0.2256355E-09  0.2937194E-06  0.3078005E-05 -0.2420733E-09 -0.4584725E-11 -0.4121339E+00 -0.5462914E-01  0.1978071E-14 -0.1775286E-15
  0.2000000E+00  0.3984136E+01  0.3954194E+00 -0.6705520E-08 -0.1333008E-09  0.2937194E-06  0.2082831E-05 -0.2420733E-09 -0.2127201E-11 -0.4121339E+00 -0.3784964E-01  0.1978071E-14 -0.1225909E-15
  0.3000000E+00  0.3984136E+01  0.1436002E+00 -0.6705520E-08 -0.4401298E-11  0.2937194E-06  0.6521904E-06 -0.2420733E-09  0.1180863E-11 -0.4121339E+00 -0.1372511E-01  0.1978071E-14 -0.4313145E-16
  0.4000000E+00  0.3984136E+01 -0.1336529E+00 -0.6705520E-08  0.1298074E-09  0.2937194E-06 -0.9206304E-06 -0.2420733E-09  0.4381202E-11 -0.4121339E+00  0.1283229E-01  0.1978071E-14  0.4520552E-16
  0.5000000E+00  0.3984136E+01 -0.3803589E+00 -0.6705520E-08  0.2365192E-09  0.2937194E-06 -0.2312313E-05 -0.2420733E-09  0.6518916E-11 -0.4121339E+00  0.3645751E-01  0.1978071E-14  0.1250276E-15
  0.6000000E+00  0.3984136E+01 -0.5474414E+00 -0.6705520E-08  0.2891597E-09  0.2937194E-06 -0.3235299E-05 -0.2420733E-09  0.6904442E-11 -0.4121339E+00  0.5244819E-01  0.1978071E-14  0.1806093E-15
  0.7000000E+00  0.3984136E+01 -0.6028071E+00 -0.6705520E-08  0.2737156E-09  0.2937194E-06 -0.3496540E-05 -0.2420733E-09  0.5308728E-11 -0.4121339E+00  0.5773085E-01  0.1978071E-14  0.2009712E-15
  0.8000000E+00  0.3984136E+01 -0.5377464E+00 -0.6705520E-08  0.1921184E-09  0.2937194E-06 -0.3037303E-05 -0.2420733E-09  0.2039262E-11 -0.4121339E+00  0.5147413E-01  0.1978071E-14  0.1820166E-15
  0.9000000E+00  0.3984136E+01 -0.3683399E+00 -0.6705520E-08  0.6188432E-10  0.2937194E-06 -0.1945893E-05 -0.2420733E-09 -0.2124924E-11 -0.4121339E+00  0.3522314E-01  0.1978071E-14  0.1273122E-15
  0.1000000E+01  0.3984136E+01 -0.1316413E+00 -0.6705520E-08 -0.8790489E-10  0.2937194E-06 -0.4405758E-06 -0.2420733E-09 -0.6124822E-11 -0.4121339E+00  0.1253272E-01  0.1978071E-14  0.4736928E-16
  0.1100000E+01  0.3984136E+01  0.1224747E+00 -0.6705520E-08 -0.2233363E-09  0.2937194E-06  0.1174004E-05 -0.2420733E-09 -0.8891922E-11 -0.4121339E+00 -0.1181462E-01  0.1978071E-14 -0.4242474E-16
  0.1200000E+01  0.3984136E+01  0.3419894E+00 -0.6705520E-08 -0.3135309E-09  0.2937194E-06  0.2568248E-05 -0.2420733E-09 -0.9628609E-11 -0.4121339E+00 -0.3283290E-01  0.1978071E-14 -0.1248044E-15
  0.1300000E+01  0.3984136E+01  0.4836306E+00 -0.6705520E-08 -0.3377950E-09  0.2937194E-06  0.3454557E-05 -0.2420733E-09 -0.8026252E-11 -0.4121339E+00 -0.4637677E-01  0.1978071E-14 -0.1839652E-15
  0.1400000E+01  0.3984136E+01  0.5216479E+00 -0.6705520E-08 -0.2903797E-09  0.2937194E-06  0.3646265E-05 -0.2420733E-09 -0.4362873E-11 -0.4121339E+00 -0.4998258E-01  0.1978071E-14 -0.2085873E-15
  0.1500000E+01  0.3984136E+01  0.4526574E+00 -0.6705520E-08 -0.1817428E-09  0.2937194E-06  0.3096530E-05 -0.2420733E-09  0.5473144E-12 -0.4121339E+00 -0.4333209E-01  0.1978071E-14 -0.1939667E-15
  0.1600000E+01  0.3984136E+01  0.2956139E+00 -0.6705520E-08 -0.3603289E-10  0.2937194E-06  0.1909131E-05 -0.2420733E-09  0.5542977E-11 -0.4121339E+00 -0.2824873E-01  0.1978071E-14 -0.1428525E-15
  0.1700000E+01  0.3984136E+01  0.8704603E-01 -0.6705520E-08  0.1145965E-09  0.2937194E-06  0.3187242E-06 -0.2420733E-09  0.9398529E-11 -0.4121339E+00 -0.8239636E-02  0.1978071E-14 -0.6485311E-16
  0.1800000E+01  0.3984136E+01 -0.1272943E+00 -0.6705520E-08  0.2374783E-09  0.2937194E-06 -0.1355709E-05 -0.2420733E-09  0.1113100E-10 -0.4121339E+00  0.1230598E-01  0.1978071E-14  0.2545287E-16
  0.1900000E+01  0.3984136E+01 -0.3024706E+00 -0.6705520E-08  0.3069573E-09  0.2937194E-06 -0.2774990E-05 -0.2420733E-09  0.1025339E-10 -0.4121339E+00  0.2907998E-01  0.1978071E-14  0.1113124E-15
  0.2000000E+01  0.3984136E+01 -0.4038775E+00 -0.6705520E-08  0.3101683E-09  0.2937194E-06 -0.3648584E-05 -0.2420733E-09  0.6910425E-11 -0.4121339E+00  0.3876778E-01  0.1978071E-14  0.1769562E-15
  0.2100000E+01  0.3984136E+01 -0.4141938E+00 -0.6705520E-08  0.2497130E-09  0.2937194E-06 -0.3794166E-05 -0.2420733E-09  0.1858844E-11 -0.4121339E+00  0.3971445E-01  0.1978071E-14  0.2105089E-15
  0.2200000E+01  0.3984136E+01 -0.3363564E+00 -0.6705520E-08  0.1426352E-09  0.2937194E-06 -0.3175700E-05 -0.2420733E-09 -0.3704932E-11 -0.4121339E+00  0.3220894E-01  0.1978071E-14  0.2061146E-15
  0.2300000E+01  0.3984136E+01 -0.1920432E+00 -0.6705520E-08  0.1597551E-10  0.2937194E-06 -0.1912060E-05 -0.2420733E-09 -0.8430645E-11 -0.4121339E+00  0.1833721E-01  0.1978071E-14  0.1648999E-15
  0.2400000E+01  0.3984136E+01 -0.1615185E-01 -0.6705520E-08 -0.9999066E-10  0.2937194E-06 -0.2541160E-06 -0.2420733E-09 -0.1114410E-10 -0.4121339E+00  0.1451442E-02  0.1978071E-14  0.9462658E-16
  0.2500000E+01  0.3984136E+01  0.1513737E+00 -0.6705520E-08 -0.1791659E-09  0.2937194E-06  0.1465266E-05 -0.2420733E-09 -0.1114054E-10 -0.4121339E+00 -0.1461484E-01  0.1978071E-14  0.8141250E-17
  0.2600000E+01  0.3984136E+01  0.2744865E+00 -0.6705520E-08 -0.2058907E-09  0.2937194E-06  0.2898446E-05 -0.2420733E-09 -0.8367741E-11 -0.4121339E+00 -0.2640500E-01  0.1978071E-14 -0.7905703E-16
  0.2700000E+01  0.3984136E+01  0.3287505E+00 -0.6705520E-08 -0.1785148E-09  0.2937194E-06  0.3753752E-05 -0.2420733E-09 -0.3452661E-11 -0.4121339E+00 -0.3157903E-01  0.1978071E-14 -0.1516540E-15
  0.2800000E+01  0.3984136E+01  0.3061777E+00 -0.6705520E-08 -0.1094186E-09  0.2937194E-06  0.3855394E-05 -0.2420733E-09  0.2438504E-11 -0.4121339E+00 -0.2937676E-01  0.1978071E-14 -0.1972357E-15
  0.2900000E+01  0.3984136E+01  0.2162235E+00 -0.6705520E-08 -0.2148056E-10  0.2937194E-06  0.3180069E-05 -0.2420733E-09  0.7874261E-11 -0.4121339E+00 -0.2071212E-01  0.1978071E-14 -0.2083942E-15
  0.3000000E+01  0.3984136E+01  0.8287178E-01 -0.6705520E-08  0.5811700E-10  0.2937194E-06  0.1862638E-05 -0.2420733E-09  0.1150106E-10 -0.4121339E+00 -0.7892265E-02  0.1978071E-14 -0.1838745E-15
  0.3100000E+01  0.3984136E+01 -0.6139186E-01 -0.6705520E-08  0.1051998E-09  0.2937194E-06  0.1693633E-06 -0.2420733E-09  0.1237347E-10 -0.4121339E+00  0.5961825E-02  0.1978071E-14 -0.1285996E-15
  0.3200000E+01  0.3984136E+01 -0.1832492E+00 -0.6705520E-08  0.1051794E-09  0.2937194E-06 -0.1555948E-05 -0.2420733E-09  0.1019067E-10 -0.4121339E+00  0.1765189E-01  0.1978071E-14 -0.5261881E-16
  0.3300000E+01  0.3984136E+01 -0.2560825E+00 -0.6705520E-08  0.5720666E-10  0.2937194E-06 -0.2962111E-05 -0.2420733E-09  0.5380915E-11 -0.4121339E+00  0.2462537E-01  0.1978071E-14  0.3078546E-16
  0.3400000E+01  0.3984136E+01 -0.2656825E+00 -0.6705520E-08 -0.2521644E-10  0.2937194E-06 -0.3762616E-05 -0.2420733E-09 -0.9874684E-12 -0.4121339E+00  0.2552267E-01  0.1978071E-14  0.1074665E-15
  0.3500000E+01  0.3984136E+01 -0.2129153E+00 -0.6705520E-08 -0.1174088E-09  0.2937194E-06 -0.3794715E-05 -0.2420733E-09 -0.7449111E-11 -0.4121339E+00  0.2043225E-01  0.1978071E-14  0.1648243E-15
  0.3600000E+01  0.3984136E+01 -0.1128678E+00 -0.6705520E-08 -0.1897806E-09  0.2937194E-06 -0.3053270E-05 -0.2420733E-09 -0.1248155E-10 -0.4121339E+00  0.1080743E-01  0.1978071E-14  0.1938551E-15
  0.3700000E+01  0.3984136E+01  0.9202347E-02 -0.6705520E-08 -0.2156988E-09  0.2937194E-06 -0.1692165E-05 -0.2420733E-09 -0.1486120E-10 -0.4121339E+00 -0.9233236E-03  0.1978071E-14  0.1905086E-15
  0.3800000E+01  0.3984136E+01  0.1240696E+00 -0.6705520E-08 -0.1790102E-09  0.2937194E-06  0.7180714E-08 -0.2420733E-09 -0.1395244E-10 -0.4121339E+00 -0.1195260E-01  0.1978071E-14  0.1561675E-15
  0.3900000E+01  0.3984136E+01  0.2054005E+00 -0.6705520E-08 -0.7927373E-10  0.2937194E-06  0.1693842E-05 -0.2420733E-09 -0.9859920E-11 -0.4121339E+00 -0.1975281E-01  0.1978071E-14  0.9722186E-16
  0.4000000E+01  0.3984136E+01  0.2356803E+00 -0.6705520E-08  0.6672473E-10  0.2937194E-06  0.3019989E-05 -0.2420733E-09 -0.3409711E-11 -0.4121339E+00 -0.2264500E-01  0.1978071E-14  0.2385160E-16
  0.4100000E+01  0.3984136E+01  0.2098909E+00 -0.6705520E-08  0.2277733E-09  0.2937194E-06  0.3713089E-05 -0.2420733E-09  0.4035585E-11 -0.4121339E+00 -0.2015122E-01  0.1978071E-14 -0.5174315E-16
  0.4200000E+01  0.3984136E+01  0.1361738E+00 -0.6705520E-08  0.3648900E-09  0.2937194E-06  0.3632525E-05 -0.2420733E-09  0.1088344E-10 -0.4121339E+00 -0.1305733E-01  0.1978071E-14 -0.1173561E-15
  0.4300000E+01  0.3984136E+01  0.3344315E-01 -0.6705520E-08  0.4404176E-09  0.2937194E-06  0.2798857E-05 -0.2420733E-09  0.1566731E-10 -0.4121339E+00 -0.3182966E-02  0.1978071E-14 -0.1627067E-15
  0.4400000E+01  0.3984136E+01 -0.7339589E-01 -0.6705520E-08  0.4274698E-09  0.2937194E-06  0.1389444E-05 -0.2420733E-09  0.1736902E-10 -0.4121339E+00  0.7078388E-02  0.1978071E-14 -0.1810015E-15
  0.4500000E+01  0.3984136E+01 -0.1594317E+00 -0.6705520E-08  0.3174584E-09  0.2937194E-06 -0.2987482E-06 -0.2420733E-09  0.1563435E-10 -0.4121339E+00  0.1533440E-01  0.1978071E-14 -0.1698976E-15
  0.4600000E+01  0.3984136E+01 -0.2055125E+00 -0.6705520E-08  0.1237643E-09  0.2937194E-06 -0.1911414E-05 -0.2420733E-09  0.1083502E-10 -0.4121339E+00  0.1974757E-01  0.1978071E-14 -0.1317545E-15
  0.4700000E+01  0.3984136E+01 -0.2024688E+00 -0.6705520E-08 -0.1195434E-09  0.2937194E-06 -0.3111246E-05 -0.2420733E-09  0.3968292E-11 -0.4121339E+00  0.1944025E-01  0.1978071E-14 -0.7315953E-16
  0.4800000E+01  0.3984136E+01 -0.1528697E+00 -0.6705520E-08 -0.3639455E-09  0.2937194E-06 -0.3648701E-05 -0.2420733E-09 -0.3577730E-11 -0.4121339E+00  0.1466267E-01  0.1978071E-14 -0.3822608E-17
  0.4900000E+01  0.3984136E+01 -0.6999347E-01 -0.6705520E-08 -0.5564936E-09  0.2937194E-06 -0.3414350E-05 -0.2420733E-09 -0.1033387E-10 -0.4121339E+00  0.6693256E-02  0.1978071E-14  0.6498726E-16
  0.5000000E+01  0.3984136E+01  0.2565224E-01 -0.6705520E-08 -0.6514859E-09  0.2937194E-06 -0.2461600E-05 -0.2420733E-09 -0.1506038E-10 -0.4121339E+00 -0.2496243E-02  0.1978071E-14  0.1222195E-15
  0.5100000E+01  0.3984136E+01  0.1113669E+00 -0.6705520E-08 -0.6212166E-09  0.2937194E-06 -0.9951091E-06 -0.2420733E-09 -0.1698832E-10 -0.4121339E+00 -0.1072490E-01  0.1978071E-14  0.1587728E-15
  0.5200000E+01  0.3984136E+01  0.1676262E+00 -0.6705520E-08 -0.4632811E-09  0.2937194E-06  0.6727998E-06 -0.2420733E-09 -0.1594215E-10 -0.4121339E+00 -0.1611839E-01  0.1978071E-14  0.1689208E-15
  0.5300000E+01  0.3984136E+01  0.1825194E+00 -0.6705520E-08 -0.2026176E-09  0.2937194E-06  0.2188393E-05 -0.2420733E-09 -0.1232300E-10 -0.4121339E+00 -0.1753494E-01  0.1978071E-14  0.1512210E-15
  0.5400000E+01  0.3984136E+01  0.1542541E+00 -0.6705520E-08  0.1124494E-09  0.2937194E-06  0.3231549E-05 -0.2420733E-09 -0.6969110E-11 -0.4121339E+00 -0.1480539E-01  0.1978071E-14  0.1087563E-15
  0.5500000E+01  0.3984136E+01  0.9120791E-01 -0.6705520E-08  0.4195243E-09  0.2937194E-06  0.3583456E-05 -0.2420733E-09 -0.9377401E-12 -0.4121339E+00 -0.8737459E-02  0.1978071E-14  0.4866765E-16
  0.5600000E+01  0.3984136E+01  0.9595922E-02 -0.6705520E-08  0.6549805E-09  0.2937194E-06  0.3172730E-05 -0.2420733E-09  0.4734515E-11 -0.4121339E+00 -0.8910942E-03  0.1978071E-14 -0.1897533E-16
  0.5700000E+01  0.3984136E+01 -0.7061755E-01 -0.6705520E-08  0.7676154E-09  0.2937194E-06  0.2090082E-05 -0.2420733E-09  0.9231615E-11 -0.4121339E+00  0.6814739E-02  0.1978071E-14 -0.8279914E-16
  0.5800000E+01  0.3984136E+01 -0.1305466E+00 -0.6705520E-08  0.7301258E-09  0.2937194E-06  0.5685402E-06 -0.2420733E-09  0.1207623E-10 -0.4121339E+00  0.1256600E-01  0.1978071E-14 -0.1320043E-15
  0.5900000E+01  0.3984136E+01 -0.1567976E+00 -0.6705520E-08  0.5458110E-09  0.2937194E-06 -0.1066658E-05 -0.2420733E-09  0.1314926E-10 -0.4121339E+00  0.1507750E-01  0.1978071E-14 -0.1581986E-15
  0.6000000E+01  0.3984136E+01 -0.1444373E+00 -0.6705520E-08  0.2488577E-09  0.2937194E-06 -0.2467566E-05 -0.2420733E-09  0.1262011E-10 -0.4121339E+00  0.1387762E-01  0.1978071E-14 -0.1568720E-15
  0.6100000E+01  0.3984136E+01 -0.9786877E-01 -0.6705520E-08 -0.1020423E-09  0.2937194E-06 -0.3337696E-05 -0.2420733E-09  0.1082287E-10 -0.4121339E+00  0.9392004E-02  0.1978071E-14 -0.1282466E-15
  0.6200000E+01  0.3984136E+01 -0.2947274E-01 -0.6705520E-08 -0.4355447E-09  0.2937194E-06 -0.3494918E-05 -0.2420733E-09  0.8125186E-11 -0.4121339E+00  0.2812396E-02  0.1978071E-14 -0.7733079E-16
  0.6300000E+01  0.3984136E+01  0.4359205E-01 -0.6705520E-08 -0.6825371E-09  0.2937194E-06 -0.2909710E-05 -0.2420733E-09  0.4831662E-11 -0.4121339E+00 -0.4211204E-02  0.1978071E-14 -0.1312773E-16
  0.6400000E+01  0.3984136E+01  0.1036213E+00 -0.6705520E-08 -0.7908968E-09  0.2937194E-06 -0.1710673E-05 -0.2420733E-09  0.1151656E-11 -0.4121339E+00 -0.9977440E-02  0.1978071E-14  0.5289742E-16
  0.6500000E+01  0.3984136E+01  0.1365933E+00 -0.6705520E-08 -0.7369070E-09  0.2937194E-06 -0.1562298E-06 -0.2420733E-09 -0.2766836E-11 -0.4121339E+00 -0.1313983E-01  0.1978071E-14  0.1088411E-15
  0.6600000E+01  0.3984136E+01  0.1353928E+00 -0.6705520E-08 -0.5307813E-09  0.2937194E-06  0.1421257E-05 -0.2420733E-09 -0.6755939E-11 -0.4121339E+00 -0.1301633E-01  0.1978071E-14  0.1445290E-15
  0.6700000E+01  0.3984136E+01  0.1012988E+00 -0.6705520E-08 -0.2149909E-09  0.2937194E-06  0.2686839E-05 -0.2420733E-09 -0.1053925E-10 -0.4121339E+00 -0.9731827E-02  0.1978071E-14  0.1534277E-15
  0.6800000E+01  0.3984136E+01  0.4343150E-01 -0.6705520E-08  0.1443614E-09  0.2937194E-06  0.3374424E-05 -0.2420733E-09 -0.1367928E-10 -0.4121339E+00 -0.4164579E-02  0.1978071E-14  0.1339286E-15
  0.6900000E+01  0.3984136E+01 -0.2365036E-01 -0.6705520E-08  0.4714045E-09  0.2937194E-06  0.3343051E-05 -0.2420733E-09 -0.1559559E-10 -0.4121339E+00  0.2285090E-02  0.1978071E-14  0.8973486E-16
  0.7000000E+01  0.3984136E+01 -0.8357567E-01 -0.6705520E-08  0.6966158E-09  0.2937194E-06  0.2605918E-05 -0.2420733E-09 -0.1566729E-10 -0.4121339E+00  0.8043501E-02  0.1978071E-14  0.2923998E-16
  0.7100000E+01  0.3984136E+01 -0.1221212E+00 -0.6705520E-08  0.7717920E-09  0.2937194E-06  0.1326208E-05 -0.2420733E-09 -0.1340083E-10 -0.4121339E+00  0.1174425E-01  0.1978071E-14 -0.3601139E-16
  0.7200000E+01  0.3984136E+01 -0.1305460E+00 -0.6705520E-08  0.6805724E-09  0.2937194E-06 -0.2191487E-06 -0.2420733E-09 -0.8625913E-11 -0.4121339E+00  0.1254846E-01  0.1978071E-14 -0.9351600E-16
  0.7300000E+01  0.3984136E+01 -0.1075339E+00 -0.6705520E-08  0.4422165E-09  0.2937194E-06 -0.1699754E-05 -0.2420733E-09 -0.1655102E-11 -0.4121339E+00  0.1033116E-01  0.1978071E-14 -0.1322391E-15
  0.7400000E+01  0.3984136E+01 -0.5930859E-01 -0.6705520E-08  0.1077326E-09  0.2937194E-06 -0.2802848E-05 -0.2420733E-09  0.6648959E-11 -0.4121339E+00  0.5691987E-02  0.1978071E-14 -0.1448045E-15
  0.7500000E+01  0.3984136E+01  0.2042620E-02 -0.6705520E-08 -0.2508857E-09  0.2937194E-06 -0.3299921E-05 -0.2420733E-09  0.1494074E-10 -0.4121339E+00 -0.2062877E-03  0.1978071E-14 -0.1289865E-15
  0.7600000E+01  0.3984136E+01  0.6160700E-01 -0.6705520E-08 -0.5560286E-09  0.2937194E-06 -0.3094446E-05 -0.2420733E-09  0.2160392E-10 -0.4121339E+00 -0.5929979E-02  0.1978071E-14 -0.8820173E-16
  0.7700000E+01  0.3984136E+01  0.1052716E+00 -0.6705520E-08 -0.7411720E-09  0.2937194E-06 -0.2240747E-05 -0.2420733E-09  0.2507633E-10 -0.4121339E+00 -0.1012298E-01  0.1978071E-14 -0.3085142E-16
  0.7800000E+01  0.3984136E+01  0.1230654E+00 -0.6705520E-08 -0.7652937E-09  0.2937194E-06 -0.9302845E-06 -0.2420733E-09  0.2422312E-10 -0.4121339E+00 -0.1182788E-01  0.1978071E-14  0.3135478E-16
  0.7900000E+01  0.3984136E+01  0.1114264E+00 -0.6705520E-08 -0.6218923E-09  0.2937194E-06  0.5513552E-06 -0.2420733E-09  0.1866819E-10 -0.4121339E+00 -0.1070363E-01  0.1978071E-14  0.8578884E-16
  0.8000000E+01  0.3984136E+01  0.7388618E-01 -0.6705520E-08 -0.3405924E-09  0.2937194E-06  0.1887065E-05 -0.2420733E-09  0.8992659E-11 -0.4121339E+00 -0.7090985E-02  0.1978071E-14  0.1215016E-15
  0.8100000E+01  0.3984136E+01  0.2003731E-01 -0.6705520E-08  0.1902812E-10  0.2937194E-06  0.2796595E-05 -0.2420733E-09 -0.3266794E-11 -0.4121339E+00 -0.1913004E-02  0.1978071E-14  0.1315069E-15
  0.8200000E+01  0.3984136E+01 -0.3690690E-01 -0.6705520E-08  0.3800857E-09  0.2937194E-06  0.3095951E-05 -0.2420733E-09 -0.1584454E-10 -0.4121339E+00  0.3559769E-02  0.1978071E-14  0.1142412E-15
  0.8300000E+01  0.3984136E+01 -0.8336206E-01 -0.6705520E-08  0.6648548E-09  0.2937194E-06  0.2735052E-05 -0.2420733E-09 -0.2617308E-10 -0.4121339E+00  0.8021752E-02  0.1978071E-14  0.7388735E-16
  0.8400001E+01  0.3984136E+01 -0.1086165E+00 -0.6705520E-08  0.8114312E-09  0.2937194E-06  0.1805873E-05 -0.2420733E-09 -0.3192415E-10 -0.4121339E+00  0.1044406E-01  0.1978071E-14  0.1947518E-16
  0.8500000E+01  0.3984136E+01 -0.1073129E+00 -0.6705520E-08  0.7870921E-09  0.2937194E-06  0.5198403E-06 -0.2420733E-09 -0.3155269E-10 -0.4121339E+00  0.1031284E-01  0.1978071E-14 -0.3707645E-16
  0.8600000E+01  0.3984136E+01 -0.8058039E-01 -0.6705520E-08  0.5953826E-09  0.2937194E-06 -0.8402243E-06 -0.2420733E-09 -0.2471110E-10 -0.4121339E+00  0.7737856E-02  0.1978071E-14 -0.8355116E-16
  0.8700000E+01  0.3984136E+01 -0.3558783E-01 -0.6705520E-08  0.2754759E-09  0.2937194E-06 -0.1982420E-05 -0.2420733E-09 -0.1242691E-10 -0.4121339E+00  0.3409280E-02  0.1978071E-14 -0.1101036E-15
  0.8800000E+01  0.3984136E+01  0.1633305E-01 -0.6705520E-08 -0.1061348E-09  0.2937194E-06 -0.2669004E-05 -0.2420733E-09  0.3020495E-11 -0.4121339E+00 -0.1582975E-02  0.1978071E-14 -0.1114256E-15
  0.8900001E+01  0.3984136E+01  0.6251598E-01 -0.6705520E-08 -0.4697387E-09  0.2937194E-06 -0.2766272E-05 -0.2420733E-09  0.1851630E-10 -0.4121339E+00 -0.6021230E-02  0.1978071E-14 -0.8790680E-16
  0.9000000E+01  0.3984136E+01  0.9203095E-01 -0.6705520E-08 -0.7393401E-09  0.2937194E-06 -0.2270992E-05 -0.2420733E-09  0.3074598E-10 -0.4121339E+00 -0.8855222E-02  0.1978071E-14 -0.4553047E-16
  0.9100000E+01  0.3984136E+01  0.9826367E-01 -0.6705520E-08 -0.8587487E-09  0.2937194E-06 -0.1307733E-05 -0.2420733E-09  0.3692203E-10 -0.4121339E+00 -0.9449929E-02  0.1978071E-14  0.5500020E-17
  0.9200000E+01  0.3984136E+01  0.8038882E-01 -0.6705520E-08 -0.8033575E-09  0.2937194E-06 -0.9858133E-07 -0.2420733E-09  0.3543439E-10 -0.4121339E+00 -0.7727011E-02  0.1978071E-14  0.5309948E-16
  0.9300000E+01  0.3984136E+01  0.4341979E-01 -0.6705520E-08 -0.5851774E-09  0.2937194E-06  0.1087742E-05 -0.2420733E-09  0.2627353E-10 -0.4121339E+00 -0.4169330E-02  0.1978071E-14  0.8609747E-16
  0.9400001E+01  0.3984136E+01 -0.3147807E-02 -0.6705520E-08 -0.2500297E-09  0.2937194E-06  0.1995574E-05 -0.2420733E-09  0.1111723E-10 -0.4121339E+00  0.3096293E-03  0.1978071E-14  0.9684545E-16
  0.9500000E+01  0.3984136E+01 -0.4773805E-01 -0.6705520E-08  0.1323942E-09  0.2937194E-06  0.2437679E-05 -0.2420733E-09 -0.6961898E-11 -0.4121339E+00  0.4596790E-02  0.1978071E-14  0.8303606E-16
  0.9600000E+01  0.3984136E+01 -0.7953873E-01 -0.6705520E-08  0.4834454E-09  0.2937194E-06  0.2334217E-05 -0.2420733E-09 -0.2411691E-10 -0.4121339E+00  0.7652902E-02  0.1978071E-14  0.4829829E-16
  0.9700000E+01  0.3984136E+01 -0.9109254E-01 -0.6705520E-08  0.7321282E-09  0.2937194E-06  0.1727056E-05 -0.2420733E-09 -0.3655130E-10 -0.4121339E+00  0.8761563E-02  0.1978071E-14  0.1395008E-17
  0.9800000E+01  0.3984136E+01 -0.8002192E-01 -0.6705520E-08  0.8298744E-09  0.2937194E-06  0.7670228E-06 -0.2420733E-09 -0.4136800E-10 -0.4121339E+00  0.7694891E-02  0.1978071E-14 -0.4580951E-16
  0.9900001E+01  0.3984136E+01 -0.4948645E-01 -0.6705520E-08  0.7603138E-09  0.2937194E-06 -0.3224922E-06 -0.2420733E-09 -0.3725165E-10 -0.4121339E+00  0.4757298E-02  0.1978071E-14 -0.8116992E-16
Zone t="DoF    2",I=   100,F=POINT
  0.0000000E+00 -0.6260480E-09 -0.1637274E-08  0.3984130E+01  0.6332103E+00 -0.2668011E-08  0.5500147E-09  0.4121334E+00  0.6063223E-01  0.2883984E-09 -0.6885787E-10  0.7329370E-09  0.1198050E-09
  0.1000000E+00 -0.6260480E-09 -0.1448481E-08  0.3984130E+01  0.5705545E+00 -0.2668011E-08  0.4786731E-09  0.4121334E+00  0.5462908E-01  0.2883984E-09 -0.6279525E-10  0.7329370E-09  0.1079604E-09
  0.2000000E+00 -0.6260480E-09 -0.9253660E-09  0.3984130E+01  0.3954187E+00 -0.2668011E-08  0.2833306E-09  0.4121334E+00  0.3784960E-01  0.2883984E-09 -0.4571123E-10  0.7329370E-09  0.7485072E-10
  0.3000000E+00 -0.6260480E-09 -0.1878266E-09  0.3984130E+01  0.1436000E+00 -0.2668011E-08  0.1519052E-10  0.4121334E+00  0.1372510E-01  0.2883984E-09 -0.2070862E-10  0.7329370E-09  0.2723887E-10
  0.4000000E+00 -0.6260480E-09  0.5950052E-09  0.3984130E+01 -0.1336526E+00 -0.2668011E-08 -0.2552987E-09  0.4121334E+00 -0.1283227E-01  0.2883984E-09  0.7695868E-11  0.7329370E-09 -0.2519212E-10
  0.5000000E+00 -0.6260480E-09  0.1243420E-08  0.3984130E+01 -0.3803582E+00 -0.2668011E-08 -0.4567673E-09  0.4121334E+00 -0.3645746E-01  0.2883984E-09  0.3441829E-10  0.7329370E-09 -0.7186346E-10
  0.6000000E+00 -0.6260480E-09  0.1608213E-08  0.3984130E+01 -0.5474404E+00 -0.2668011E-08 -0.5355927E-09  0.4121334E+00 -0.5244812E-01  0.2883984E-09  0.5475077E-10  0.7329370E-09 -0.1034983E-09
  0.7000000E+00 -0.6260480E-09  0.1604800E-08  0.3984130E+01 -0.6028060E+00 -0.2668011E-08 -0.4701031E-09  0.4121334E+00 -0.5773077E-01  0.2883984E-09  0.6521946E-10  0.7329370E-09 -0.1140258E-09
  0.8000000E+00 -0.6260480E-09  0.1232598E-08  0.3984130E+01 -0.5377454E+00 -0.2668011E-08 -0.2766133E-09  0.4121334E+00 -0.5147408E-01  0.2883984E-09  0.6419481E-10  0.7329370E-09 -0.1017906E-09
  0.9000000E+00 -0.6260480E-09  0.5752489E-09  0.3984130E+01 -0.3683393E+00 -0.2668011E-08 -0.5658684E-11  0.4121334E+00 -0.3522310E-01  0.2883984E-09  0.5214328E-10  0.7329370E-09 -0.6982057E-10
  0.1000000E+01 -0.6260480E-09 -0.2183564E-09  0.3984130E+01 -0.1316411E+00 -0.2668011E-08  0.2707243E-09  0.4121334E+00 -0.1253271E-01  0.2883984E-09  0.3148222E-10  0.7329370E-09 -0.2510733E-10
  0.1100000E+01 -0.6260480E-09 -0.9679041E-09  0.3984130E+01  0.1224743E+00 -0.2668011E-08  0.4775193E-09  0.4121334E+00  0.1181460E-01  0.2883984E-09  0.6077345E-11  0.7329370E-09  0.2293147E-10
  0.1200000E+01 -0.6260480E-09 -0.1502625E-08  0.3984130E+01  0.3419887E+00 -0.2668011E-08  0.5563681E-09  0.4121334E+00  0.3283285E-01  0.2883984E-09 -0.1950915E-10  0.7329370E-09  0.6446767E-10
  0.1300000E+01 -0.6260480E-09 -0.1700078E-08  0.3984130E+01  0.4836296E+00 -0.2668011E-08  0.4812999E-09  0.4121334E+00  0.4637671E-01  0.2883984E-09 -0.4086850E-10  0.7329370E-09  0.9131909E-10
  0.1400000E+01 -0.6260480E-09 -0.1513934E-08  0.3984130E+01  0.5216469E+00 -0.2668011E-08  0.2664292E-09  0.4121334E+00  0.4998252E-01  0.2883984E-09 -0.5452822E-10  0.7329370E-09  0.9860794E-10
  0.1500000E+01 -0.6260480E-09 -0.9844837E-09  0.3984130E+01  0.4526567E+00 -0.2668011E-08 -0.3652044E-10  0.4121334E+00  0.4333205E-01  0.2883984E-09 -0.5852478E-10  0.7329370E-09  0.8567790E-10
  0.1600000E+01 -0.6260480E-09 -0.2295280E-09  0.3984130E+01  0.2956134E+00 -0.2668011E-08 -0.3504572E-09  0.4121334E+00  0.2824870E-01  0.2883984E-09 -0.5266925E-10  0.7329370E-09  0.5609175E-10
  0.1700000E+01 -0.6260480E-09  0.5822351E-09  0.3984130E+01  0.8704600E-01 -0.2668011E-08 -0.5920479E-09  0.4121334E+00  0.8239645E-02  0.2883984E-09 -0.3847526E-10  0.7329370E-09  0.1673476E-10
  0.1800000E+01 -0.6260480E-09  0.1269237E-08  0.3984130E+01 -0.1272939E+00 -0.2668011E-08 -0.6930196E-09  0.4121334E+00 -0.1230595E-01  0.2883984E-09 -0.1878355E-10  0.7329370E-09 -0.2375966E-10
  0.1900000E+01 -0.6260480E-09  0.1677852E-08  0.3984130E+01 -0.3024699E+00 -0.2668011E-08 -0.6182891E-09  0.4121334E+00 -0.2907993E-01  0.2883984E-09  0.2825121E-11  0.7329370E-09 -0.5690401E-10
  0.2000000E+01 -0.6260480E-09  0.1716761E-08  0.3984130E+01 -0.4038767E+00 -0.2668011E-08 -0.3762549E-09  0.4121334E+00 -0.3876773E-01  0.2883984E-09  0.2270472E-10  0.7329370E-09 -0.7615349E-10
  0.2100000E+01 -0.6260480E-09  0.1377165E-08  0.3984130E+01 -0.4141930E+00 -0.2668011E-08 -0.1840624E-10  0.4121334E+00 -0.3971440E-01  0.2883984E-09  0.3777395E-10  0.7329370E-09 -0.7822049E-10
  0.2200000E+01 -0.6260480E-09  0.7343948E-09  0.3984130E+01 -0.3363558E+00 -0.2668011E-08  0.3719196E-09  0.4121334E+00 -0.3220891E-01  0.2883984E-09  0.4599028E-10  0.7329370E-09 -0.6363911E-10
  0.2300000E+01 -0.6260480E-09 -0.6934567E-10  0.3984130E+01 -0.1920429E+00 -0.2668011E-08  0.6991691E-09  0.4121334E+00 -0.1833720E-01  0.2883984E-09  0.4659653E-10  0.7329370E-09 -0.3648232E-10
  0.2400000E+01 -0.6260480E-09 -0.8570402E-09  0.3984130E+01 -0.1615193E-01 -0.2668011E-08  0.8789037E-09  0.4121334E+00 -0.1451461E-02  0.2883984E-09  0.4011809E-10  0.7329370E-09 -0.3323341E-11
  0.2500000E+01 -0.6260480E-09 -0.1456428E-08  0.3984130E+01  0.1513733E+00 -0.2668011E-08  0.8591695E-09  0.4121334E+00  0.1461481E-01  0.2883984E-09  0.2814072E-10  0.7329370E-09  0.2830457E-10
  0.2600000E+01 -0.6260480E-09 -0.1738123E-08  0.3984130E+01  0.2744859E+00 -0.2668011E-08  0.6345277E-09  0.4121334E+00  0.2640496E-01  0.2883984E-09  0.1293491E-10  0.7329370E-09  0.5159496E-10
  0.2700000E+01 -0.6260480E-09 -0.1643778E-08  0.3984130E+01  0.3287498E+00 -0.2668011E-08  0.2490919E-09  0.4121334E+00  0.3157899E-01  0.2883984E-09 -0.2985038E-11  0.7329370E-09  0.6192473E-10
  0.2800000E+01 -0.6260480E-09 -0.1198101E-08  0.3984130E+01  0.3061772E+00 -0.2668011E-08 -0.2124843E-09  0.4121334E+00  0.2937673E-01  0.2883984E-09 -0.1728000E-10  0.7329370E-09  0.5776917E-10
  0.2900000E+01 -0.6260480E-09 -0.5022546E-09  0.3984130E+01  0.2162232E+00 -0.2668011E-08 -0.6441978E-09  0.4121334E+00  0.2071210E-01  0.2883984E-09 -0.2811261E-10  0.7329370E-09  0.4089315E-10
  0.3000000E+01 -0.6260480E-09  0.2896055E-09  0.3984130E+01  0.8287171E-01 -0.2668011E-08 -0.9436267E-09  0.4121334E+00  0.7892277E-02  0.2883984E-09 -0.3434091E-10  0.7329370E-09  0.1580481E-10
  0.3100000E+01 -0.6260480E-09  0.1005178E-08  0.3984130E+01 -0.6139162E-01 -0.2668011E-08 -0.1036688E-08  0.4121334E+00 -0.5961798E-02  0.2883984E-09 -0.3557202E-10  0.7329370E-09 -0.1137845E-10
  0.3200000E+01 -0.6260480E-09  0.1492240E-08  0.3984130E+01 -0.1832487E+00 -0.2668011E-08 -0.8961957E-09  0.4121334E+00 -0.1765185E-01  0.2883984E-09 -0.3209571E-10  0.7329370E-09 -0.3437475E-10
  0.3300000E+01 -0.6260480E-09  0.1651690E-08  0.3984130E+01 -0.2560820E+00 -0.2668011E-08 -0.5495475E-09  0.4121334E+00 -0.2462533E-01  0.2883984E-09 -0.2473833E-10  0.7329370E-09 -0.4815847E-10
  0.3400000E+01 -0.6260480E-09  0.1458110E-08  0.3984130E+01 -0.2656820E+00 -0.2668011E-08 -0.7345880E-10  0.4121334E+00 -0.2552265E-01  0.2883984E-09 -0.1468089E-10  0.7329370E-09 -0.5003813E-10
  0.3500000E+01 -0.6260480E-09  0.9635187E-09  0.3984130E+01 -0.2129150E+00 -0.2668011E-08  0.4232829E-09  0.4121334E+00 -0.2043224E-01  0.2883984E-09 -0.3280963E-11  0.7329370E-09 -0.4016193E-10
  0.3600000E+01 -0.6260480E-09  0.2838599E-09  0.3984130E+01 -0.1128677E+00 -0.2668011E-08  0.8251544E-09  0.4121334E+00 -0.1080744E-01  0.2883984E-09  0.8079123E-11  0.7329370E-09 -0.2135974E-10
  0.3700000E+01 -0.6260480E-09 -0.4283636E-09  0.3984130E+01  0.9202214E-02 -0.2668011E-08  0.1037333E-08  0.4121334E+00  0.9232975E-03  0.2883984E-09  0.1810913E-10  0.7329370E-09  0.1617649E-11
  0.3800000E+01 -0.6260480E-09 -0.1018825E-08  0.3984130E+01  0.1240693E+00 -0.2668011E-08  0.1008711E-08  0.4121334E+00  0.1195256E-01  0.2883984E-09  0.2570015E-10  0.7329370E-09  0.2326589E-10
  0.3900000E+01 -0.6260480E-09 -0.1365524E-08  0.3984130E+01  0.2054000E+00 -0.2668011E-08  0.7448194E-09  0.4121334E+00  0.1975277E-01  0.2883984E-09  0.2999892E-10  0.7329370E-09  0.3861956E-10
  0.4000000E+01 -0.6260480E-09 -0.1404663E-08  0.3984130E+01  0.2356798E+00 -0.2668011E-08  0.3073633E-09  0.4121334E+00  0.2264496E-01  0.2883984E-09  0.3047756E-10  0.7329370E-09  0.4437006E-10
  0.4100000E+01 -0.6260480E-09 -0.1142708E-08  0.3984130E+01  0.2098906E+00 -0.2668011E-08 -0.1997593E-09  0.4121334E+00  0.2015120E-01  0.2883984E-09  0.2700170E-10  0.7329370E-09  0.3956066E-10
  0.4200000E+01 -0.6260480E-09 -0.6522683E-09  0.3984130E+01  0.1361737E+00 -0.2668011E-08 -0.6548382E-09  0.4121334E+00  0.1305734E-01  0.2883984E-09  0.1988595E-10  0.7329370E-09  0.2571382E-10
  0.4300000E+01 -0.6260480E-09 -0.5326153E-10  0.3984130E+01  0.3344324E-01 -0.2668011E-08 -0.9474370E-09  0.4121334E+00  0.3182993E-02  0.2883984E-09  0.9917467E-11  0.7329370E-09  0.6384090E-11
  0.4400000E+01 -0.6260480E-09  0.5159632E-09  0.3984130E+01 -0.7339559E-01 -0.2668011E-08 -0.1005281E-08  0.4121334E+00 -0.7078351E-02  0.2883984E-09 -0.1677231E-11  0.7329370E-09 -0.1374112E-10
  0.4500000E+01 -0.6260480E-09  0.9306252E-09  0.3984130E+01 -0.1594313E+00 -0.2668011E-08 -0.8123977E-09  0.4121334E+00 -0.1533436E-01  0.2883984E-09 -0.1333970E-10  0.7329370E-09 -0.2996823E-10
  0.4600000E+01 -0.6260480E-09  0.1107249E-08  0.3984130E+01 -0.2055121E+00 -0.2668011E-08 -0.4139316E-09  0.4121334E+00 -0.1974754E-01  0.2883984E-09 -0.2336618E-10  0.7329370E-09 -0.3868416E-10
  0.4700000E+01 -0.6260480E-09  0.1020930E-08  0.3984130E+01 -0.2024685E+00 -0.2668011E-08  0.9371538E-10  0.4121334E+00 -0.1944023E-01  0.2883984E-09 -0.3015743E-10  0.7329370E-09 -0.3815303E-10
  0.4800000E+01 -0.6260480E-09  0.7085166E-09  0.3984130E+01 -0.1528695E+00 -0.2668011E-08  0.5854015E-09  0.4121334E+00 -0.1466267E-01  0.2883984E-09 -0.3249508E-10  0.7329370E-09 -0.2884913E-10
  0.4900000E+01 -0.6260480E-09  0.2573748E-09  0.3984130E+01 -0.6999353E-01 -0.2668011E-08  0.9372374E-09  0.4121334E+00 -0.6693278E-02  0.2883984E-09 -0.2979248E-10  0.7329370E-09 -0.1326503E-10
  0.5000000E+01 -0.6260480E-09 -0.2171314E-09  0.3984130E+01  0.2565198E-01 -0.2668011E-08  0.1056938E-08  0.4121334E+00  0.2496202E-02  0.2883984E-09 -0.2226284E-10  0.7329370E-09  0.4742004E-11