VARIABLES="w (rad/s)"
"A   1   1" "B   1   1"
"A   1   2" "B   1   2"
"A   1   3" "B   1   3"
"A   1   4" "B   1   4"
"A   1   5" "B   1   5"
"A   1   6" "B   1   6"
Zone t="Motion of body    1 in DoF   1",I=    21,F=POINT
  0.3000000E+01  0.3769285E+01  0.4906615E-01  0.2832773E-07 -0.3019522E-09 -0.7959704E-06 -0.6871705E-06 -0.8852415E-09 -0.2285105E-10 -0.3911570E+00 -0.4650739E-02  0.1480297E-14 -0.3122502E-16
  0.3100000E+01  0.3782415E+01  0.6141084E-01  0.7585773E-08  0.7594281E-09 -0.2427447E-06 -0.1098961E-06  0.1661735E-08  0.1239187E-10 -0.3925434E+00 -0.5825292E-02  0.6876220E-14  0.6938894E-17
  0.3200000E+01  0.3795690E+01  0.7627993E-01 -0.5296897E-07  0.4183676E-09 -0.1059379E-06  0.1455192E-06  0.1987246E-08  0.3797140E-10 -0.3937066E+00 -0.7239149E-02  0.5273559E-14  0.1040834E-15
  0.3300000E+01  0.3820523E+01  0.9418862E-01 -0.1672147E-07  0.4329195E-09 -0.7269961E-06 -0.6031187E-06  0.2645803E-09  0.2467004E-10 -0.3961196E+00 -0.8944299E-02  0.1103494E-13 -0.6938894E-17
  0.3400000E+01  0.3848794E+01  0.1155757E+00 -0.8902348E-08  0.4474714E-09 -0.7006832E-06 -0.8775387E-06  0.9201946E-09 -0.4183676E-10 -0.3989516E+00 -0.1098352E-01  0.8359326E-14  0.1595946E-15
  0.3500000E+01  0.3876431E+01  0.1409267E+00  0.1031107E-07 -0.3783498E-09 -0.7929547E-06 -0.1218170E-05 -0.3750237E-08 -0.9094947E-11 -0.4015806E+00 -0.1340112E-01 -0.1522592E-14  0.2775558E-16
  0.3600000E+01  0.3903863E+01  0.1708242E+00 -0.2257164E-07  0.2582965E-09  0.5929421E-06  0.6533228E-06  0.1455192E-09  0.6684786E-10 -0.4043185E+00 -0.1625712E-01 -0.3207311E-14  0.0000000E+00
  0.3700000E+01  0.3929521E+01  0.2058640E+00  0.1044592E-07 -0.5929905E-09 -0.2899685E-06 -0.7860363E-06 -0.2871053E-09 -0.6798473E-10 -0.4066032E+00 -0.1960086E-01  0.2400482E-14  0.2636780E-15
  0.3800000E+01  0.3955903E+01  0.2467909E+00  0.4962969E-08  0.1818989E-09  0.1112685E-06  0.4686299E-06  0.1953020E-09 -0.8776624E-10 -0.4091677E+00 -0.2351424E-01  0.1402387E-14  0.2498002E-15
  0.3900000E+01  0.3981040E+01  0.2943144E+00 -0.2507407E-07 -0.9822543E-10 -0.3739618E-06 -0.7806811E-06 -0.3022321E-09  0.7594281E-10 -0.4117479E+00 -0.2806651E-01  0.2960595E-14  0.8326673E-16
  0.4000000E+01  0.4004442E+01  0.3491955E+00  0.3026798E-08 -0.5165930E-09  0.2793968E-08  0.4922040E-06  0.9640644E-09 -0.1455192E-10 -0.4141009E+00 -0.3332641E-01 -0.4440892E-15 -0.6106227E-15
  0.4100000E+01  0.4035929E+01  0.4126422E+00  0.7041707E-08 -0.3332389E-08 -0.1898990E-06 -0.8763745E-06 -0.1157055E-08 -0.9686119E-10 -0.4172195E+00 -0.3941056E-01  0.1213122E-13 -0.5828671E-15
  0.4200000E+01  0.4069483E+01  0.4855476E+00 -0.1491225E-07 -0.3201421E-09 -0.3299543E-06 -0.1227134E-05  0.2456502E-08  0.2564775E-09 -0.4204352E+00 -0.4640344E-01  0.8458843E-14 -0.8326673E-15
  0.4300000E+01  0.4106274E+01  0.5690962E+00 -0.1158739E-07  0.3245077E-08  0.1689376E-05  0.4985952E-05  0.1049092E-09  0.2000888E-09 -0.4238649E+00 -0.5441646E-01 -0.1032766E-13 -0.5551115E-16
  0.4400000E+01  0.4145187E+01  0.6644979E+00  0.1217069E-08 -0.9313226E-09  0.1941384E-05  0.5852897E-05  0.1147617E-08 -0.4256435E-09 -0.4276439E+00 -0.6358376E-01  0.2018587E-14 -0.3885781E-15
  0.4500000E+01  0.4184848E+01  0.7729855E+00  0.1805731E-07  0.2473826E-09  0.3596975E-05  0.1310930E-04  0.8407773E-10  0.2091838E-09 -0.4315771E+00 -0.7402504E-01 -0.6513309E-14 -0.1831868E-14
  0.4600000E+01  0.4222272E+01  0.8956711E+00 -0.1644999E-07  0.6024493E-08  0.5353890E-05  0.1994474E-04  0.6295285E-09  0.1182343E-09 -0.4352454E+00 -0.8584072E-01 -0.3089316E-14  0.1110223E-15
  0.4700000E+01  0.4259486E+01  0.1034094E+01 -0.2278768E-07 -0.3128662E-08  0.4445777E-05  0.1811748E-04 -0.2870133E-08 -0.6857590E-09 -0.4388996E+00 -0.9918716E-01  0.5291276E-14  0.3885781E-15
  0.4800000E+01  0.4295089E+01  0.1189613E+01 -0.3744693E-07 -0.4918547E-08  0.1445102E-05  0.7483177E-05 -0.3850194E-08  0.7366907E-09 -0.4424780E+00 -0.1142071E+00 -0.1850372E-14  0.1776357E-14
  0.4900000E+01  0.4328223E+01  0.1363503E+01  0.1520527E-07 -0.1688022E-08 -0.1088697E-05 -0.4859641E-05 -0.1312642E-08 -0.9640644E-10 -0.4455540E+00 -0.1309748E+00  0.5437827E-14 -0.2442491E-14
  0.5000000E+01  0.4362487E+01  0.1557816E+01 -0.1890585E-07 -0.5820766E-10 -0.2054125E-05 -0.1125969E-04 -0.1266017E-08 -0.5748007E-09 -0.4489266E+00 -0.1497543E+00 -0.4973799E-14  0.9992007E-15
Zone t="Motion of body    1 in DoF   2",I=    21,F=POINT
  0.3000000E+01 -0.1971299E-07  0.1000444E-10  0.3769285E+01  0.4906613E-01 -0.2194429E-07 -0.3542482E-09  0.3911565E+00  0.4650741E-02 -0.1697723E-10  0.4092726E-11  0.6944278E-09  0.9408850E-11
  0.3100000E+01 -0.4656613E-08 -0.1682565E-09  0.3782410E+01  0.6141075E-01 -0.2399658E-07  0.1150511E-08  0.3925429E+00  0.5825281E-02 -0.1312019E-08  0.6821210E-11  0.6970002E-09  0.1176757E-10
  0.3200000E+01  0.1156877E-07 -0.3001333E-09  0.3795686E+01  0.7627980E-01 -0.2033630E-07  0.1879016E-08  0.3937067E+00  0.7239134E-02  0.5775291E-09  0.2228262E-10  0.6995113E-09  0.1460787E-10
  0.3300000E+01 -0.2257752E-08 -0.1782610E-09  0.3820521E+01  0.9418860E-01 -0.3294906E-07  0.9213181E-09  0.3961186E+00  0.8944319E-02  0.3660027E-09  0.1909939E-10  0.7041608E-09  0.1802516E-10
  0.3400000E+01 -0.6094684E-08 -0.3601599E-09  0.3848790E+01  0.1155759E+00 -0.1636662E-07 -0.7723429E-08  0.3989505E+00  0.1098353E-01  0.6291563E-09 -0.4433787E-10  0.7092342E-09  0.2209580E-10
  0.3500000E+01 -0.8315380E-08  0.5711627E-09  0.3876420E+01  0.1409265E+00  0.1204067E-07  0.1526132E-08  0.4015798E+00  0.1340112E-01 -0.4906074E-09  0.6730261E-10  0.7139688E-09  0.2691075E-10
  0.3600000E+01 -0.1668620E-07  0.2473826E-09  0.3903856E+01  0.1708239E+00 -0.1363676E-06  0.7894414E-08  0.4043177E+00  0.1625710E-01  0.1552204E-08 -0.1382432E-09  0.7186988E-09  0.3259219E-10
  0.3700000E+01 -0.3945535E-07  0.1557055E-08  0.3929517E+01  0.2058637E+00  0.6192037E-07  0.5929905E-09  0.4066030E+00  0.1960084E-01 -0.2257513E-08 -0.8162715E-10  0.7232795E-09  0.3923085E-10
  0.3800000E+01 -0.3553731E-08  0.2142770E-08  0.3955897E+01  0.2467904E+00  0.1795247E-07  0.6548362E-10  0.4091672E+00  0.2351421E-01 -0.4939992E-09 -0.3001333E-10  0.7283338E-09  0.4700709E-10
  0.3900000E+01  0.2292486E-07  0.1004082E-08  0.3981039E+01  0.2943137E+00 -0.6716268E-08 -0.1628359E-07  0.4117466E+00  0.2806644E-01  0.1481310E-08 -0.6320988E-10  0.7330702E-09  0.5602775E-10
  0.4000000E+01  0.1216540E-07  0.2473826E-09  0.4004436E+01  0.3491953E+00  0.7048948E-07  0.1196895E-07  0.4140999E+00  0.3332637E-01  0.2582965E-09 -0.1896296E-09  0.7373669E-09  0.6640559E-10
  0.4100000E+01 -0.1181190E-07 -0.3194145E-08  0.4035924E+01  0.4126408E+00 -0.9966288E-07 -0.1085573E-07  0.4172185E+00  0.3941048E-01  0.1146407E-08 -0.1964509E-09  0.7429441E-09  0.7837862E-10
  0.4200000E+01 -0.1884820E-07 -0.3004970E-08  0.4069475E+01  0.4855469E+00 -0.7331394E-07  0.6759365E-08  0.4204348E+00  0.4640342E-01  0.1056746E-08 -0.1437002E-09  0.7488622E-09  0.9213433E-10
  0.4300000E+01  0.1353667E-07  0.3346941E-09  0.4106269E+01  0.5690954E+00  0.7577825E-07  0.1678563E-07  0.4238643E+00  0.5441649E-01  0.3147275E-09 -0.2228262E-09  0.7555308E-09  0.1078793E-09
  0.4400000E+01  0.2137809E-07  0.7712515E-09  0.4145183E+01  0.6644972E+00  0.4190952E-07 -0.9094947E-09  0.4276434E+00  0.6358378E-01  0.1064936E-08  0.2992238E-09  0.7624642E-09  0.1258386E-09
  0.4500000E+01 -0.5174015E-09  0.5427864E-08  0.4184846E+01  0.7729845E+00 -0.5950116E-08 -0.2550951E-07  0.4315773E+00  0.7402500E-01  0.1681555E-09 -0.2210072E-09  0.7694936E-09  0.1462384E-09
  0.4600000E+01  0.1670307E-07 -0.1085573E-07  0.4222271E+01  0.8956699E+00  0.3679737E-07 -0.1135049E-07  0.4352452E+00  0.8584067E-01  0.5456968E-08  0.7548806E-10  0.7761109E-09  0.1692523E-09
  0.4700000E+01  0.3541998E-07 -0.5355105E-08  0.4259486E+01  0.1034092E+01  0.8498318E-07  0.2111483E-07  0.4388988E+00  0.9918696E-01 -0.1805057E-08 -0.9640644E-10  0.7825890E-09  0.1951614E-09
  0.4800000E+01  0.6693881E-08 -0.4758476E-08  0.4295085E+01  0.1189611E+01  0.1006507E-07  0.2895831E-08  0.4424780E+00  0.1142070E+00 -0.1546141E-08  0.6366463E-10  0.7888289E-09  0.2242637E-09
  0.4900000E+01 -0.2622908E-07 -0.3899913E-08  0.4328211E+01  0.1363499E+01 -0.1164153E-08 -0.2590241E-08  0.4455530E+00  0.1309745E+00  0.3385548E-09 -0.1218723E-09  0.7947875E-09  0.2568033E-09
  0.5000000E+01  0.0000000E+00 -0.1190347E-07  0.4362473E+01  0.1557812E+01 -0.2668239E-07  0.2096931E-07  0.4489253E+00  0.1497538E+00 -0.5064066E-09 -0.1764420E-09  0.8013889E-09  0.2931353E-09
Zone t="Motion of body    1 in DoF   3",I=    21,F=POINT
  0.3000000E+01 -0.1396984E-06  0.7171184E-07  0.6261204E-06  0.1015957E-05  0.4580304E+01  0.2258780E+01  0.4599375E-07 -0.5042966E-07 -0.4594525E-07  0.6752089E-08  0.1628327E-14  0.6661338E-15
  0.3100000E+01 -0.8231690E-07  0.2924353E-06 -0.4058764E-06  0.4988979E-06  0.4564181E+01  0.2422616E+01 -0.1104068E-07  0.1301014E-06 -0.5482786E-07 -0.2933666E-07  0.4297638E-15  0.2442491E-14
  0.3200000E+01 -0.3445894E-06  0.8847564E-07 -0.4305912E-06  0.1918525E-06  0.4531292E+01  0.2589455E+01 -0.1025001E-07 -0.2753950E-07  0.1760782E-07  0.7334165E-08 -0.5551115E-15  0.2220446E-15
  0.3300000E+01 -0.3307606E-06 -0.8381903E-08  0.2370639E-07 -0.1201697E-05  0.4497632E+01  0.2757702E+01 -0.1657154E-07  0.2751767E-07 -0.1876756E-07  0.1862645E-07 -0.9420075E-15 -0.4440892E-15
  0.3400000E+01 -0.2120128E-06  0.1182780E-06 -0.9403619E-06 -0.3838213E-06  0.4466904E+01  0.2925993E+01  0.1307104E-07  0.1143344E-06 -0.2314610E-07 -0.4447065E-07  0.1697988E-14  0.1332268E-14
  0.3500000E+01 -0.7088695E-06  0.1974404E-06 -0.1173466E-06  0.7503550E-06  0.4439452E+01  0.3092713E+01  0.1987376E-07 -0.9918585E-07 -0.1490116E-07 -0.1362059E-07  0.5075305E-15 -0.2664535E-14
  0.3600000E+01 -0.1342139E-05  0.1136213E-06 -0.7095837E-06 -0.3041350E-06  0.4416495E+01  0.3256947E+01 -0.1903876E-07 -0.1165608E-06 -0.1616879E-07 -0.4668254E-07  0.1603656E-14  0.6439294E-14
  0.3700000E+01 -0.9056483E-06 -0.2980232E-07  0.1912672E-06  0.1198670E-05  0.4375515E+01  0.3421955E+01 -0.1569247E-07  0.3372406E-07  0.2907237E-07  0.1792796E-07  0.3600723E-15 -0.8881784E-15
  0.3800000E+01 -0.9484785E-06 -0.3706664E-06  0.2086285E-07  0.2910383E-08  0.4336569E+01  0.3584140E+01  0.2672191E-07  0.1012813E-07  0.2205764E-07  0.5750917E-07 -0.1402387E-14  0.1110223E-14
  0.3900000E+01 -0.4255428E-06 -0.1005828E-06 -0.1182959E-06 -0.1705950E-05  0.4300113E+01  0.3742668E+01 -0.1438028E-07 -0.9606447E-07 -0.4728253E-07  0.3981404E-07  0.0000000E+00 -0.4440892E-14
  0.4000000E+01 -0.2230518E-06  0.4097819E-07  0.6611517E-06  0.9924406E-07  0.4266686E+01  0.3896046E+01 -0.8360075E-08  0.1899534E-06  0.2793968E-07  0.5564652E-07 -0.3885781E-14 -0.2220446E-14
  0.4100000E+01 -0.2126141E-06 -0.7450581E-07  0.7176579E-06  0.1660606E-05  0.4237395E+01  0.4043753E+01 -0.2108253E-07  0.1232474E-06  0.3861581E-08 -0.8149073E-08 -0.1083144E-15  0.4218847E-14
  0.4200000E+01  0.7406232E-07  0.2607703E-07 -0.1081831E-06  0.3166497E-06  0.4202957E+01  0.4187068E+01  0.2013708E-07 -0.7370545E-07 -0.4213126E-08 -0.5192123E-07 -0.1268826E-14 -0.2442491E-14
  0.4300000E+01  0.1685044E-06  0.9313226E-07  0.1738108E-07 -0.5435431E-06  0.4160479E+01  0.4327190E+01 -0.4433258E-08  0.1762237E-07  0.2165866E-09  0.5168840E-07  0.2065531E-15 -0.4440892E-14
  0.4400000E+01 -0.3217296E-06  0.6966293E-06 -0.7260083E-07 -0.4313188E-06  0.4119894E+01  0.4461095E+01 -0.2032638E-07  0.2783563E-06  0.5439770E-07 -0.9196810E-07 -0.9083643E-15  0.2664535E-14
  0.4500000E+01 -0.3849467E-06  0.4470348E-07 -0.2997824E-06 -0.3038440E-07  0.4081991E+01  0.4588093E+01  0.2315371E-08 -0.1219159E-06  0.2276566E-07 -0.1257285E-07  0.1677670E-14  0.6217249E-14
  0.4600000E+01 -0.5146570E-06 -0.1918525E-06  0.6428910E-06  0.2889428E-06  0.4047039E+01  0.4706573E+01 -0.1524788E-08  0.2354500E-07  0.3239383E-08  0.4121102E-07  0.1641199E-14  0.2664535E-14
  0.4700000E+01 -0.1038326E-06  0.2048910E-07 -0.4062152E-08 -0.8911593E-06  0.4015234E+01  0.4815452E+01  0.7214035E-08  0.2871529E-06  0.3170460E-07  0.2630986E-07  0.9448707E-16 -0.4440892E-14
  0.4800000E+01 -0.1928614E-06 -0.2048910E-07  0.8360075E-07  0.2096640E-06  0.3986819E+01  0.4914515E+01  0.6427096E-09 -0.1267035E-06  0.5044664E-07  0.3329478E-07 -0.9251858E-16  0.8881784E-15
  0.4900000E+01 -0.5762796E-06 -0.1862645E-06  0.1143721E-06  0.1121894E-05  0.3943986E+01  0.5010037E+01  0.3231119E-08 -0.5077163E-07  0.4846678E-07  0.1583248E-07  0.2718914E-15  0.1332268E-14
  0.5000000E+01 -0.8571893E-06 -0.2644956E-06 -0.1214910E-06 -0.4614703E-06  0.3904211E+01  0.5096715E+01 -0.2122833E-07  0.1233420E-06  0.6873161E-07  0.1171138E-06 -0.2930989E-14  0.8881784E-15
Zone t="Motion of body    1 in DoF   4",I=    21,F=POINT
  0.3000000E+01  0.2900682E-08 -0.2359002E-10  0.3924487E+00  0.4672060E-02 -0.4296074E-08  0.1242597E-09  0.4809070E-01  0.4428439E-03  0.1012192E-09 -0.4469314E-11  0.7270343E-10  0.8963079E-12
  0.3100000E+01 -0.3098150E-09  0.3672085E-10  0.3936535E+00  0.5851121E-02  0.6719772E-08 -0.1892886E-10  0.4825073E-01  0.5550284E-03  0.2054615E-09  0.1904255E-11  0.7291310E-10  0.1120691E-11
  0.3200000E+01 -0.1491571E-08  0.4001777E-10  0.3948774E+00  0.7271759E-02  0.3082832E-08 -0.3781224E-09  0.4833160E-01  0.6901076E-03 -0.1442801E-09  0.6821210E-12  0.7312484E-10  0.1392042E-11
  0.3300000E+01 -0.2081365E-08 -0.4013145E-10  0.3974095E+00  0.8983975E-02  0.1036014E-09 -0.3594778E-09  0.4856318E-01  0.8531263E-03 -0.1033307E-09  0.1122658E-11  0.7362190E-10  0.1718906E-11
  0.3400000E+01 -0.6419962E-09  0.1114131E-10  0.4003167E+00  0.1103045E-01  0.4760268E-08 -0.1008402E-09  0.4885431E-01  0.1048246E-02  0.2441801E-09 -0.2117417E-11  0.7416261E-10  0.2108875E-11
  0.3500000E+01 -0.1895907E-08  0.7412382E-10  0.4028771E+00  0.1345877E-01 -0.2907005E-08 -0.7282779E-09  0.4910654E-01  0.1279822E-02  0.1966234E-09  0.1233502E-10  0.7460604E-10  0.2569698E-11
  0.3600000E+01  0.2425319E-09  0.4251888E-10  0.4054874E+00  0.1632571E-01  0.1297641E-08  0.7487415E-09  0.4939920E-01  0.1553696E-02 -0.4084358E-09 -0.2214051E-10  0.7502502E-10  0.3114952E-11
  0.3700000E+01 -0.4326245E-09  0.3183231E-11  0.4078672E+00  0.1968675E-01  0.1658722E-08  0.1296030E-10  0.4957939E-01  0.1874435E-02 -0.1388746E-09 -0.5968559E-11  0.7544167E-10  0.3751189E-11
  0.3800000E+01 -0.4135808E-09 -0.1000444E-10  0.4104845E+00  0.2361557E-01  0.6678803E-08 -0.1032049E-08  0.4982528E-01  0.2250119E-02  0.2189967E-10 -0.9862333E-11  0.7594835E-10  0.4497575E-11
  0.3900000E+01  0.1813392E-08  0.1027729E-09  0.4130883E+00  0.2818076E-01 -0.7754025E-09  0.5516085E-09  0.5009196E-01  0.2687427E-02 -0.8000347E-10 -0.8611778E-11  0.7644421E-10  0.5365546E-11
  0.4000000E+01 -0.3274181E-09  0.4683898E-10  0.4153680E+00  0.3345689E-01 -0.9511041E-09 -0.4411049E-10  0.5032996E-01  0.3193096E-02  0.1735998E-09 -0.9947598E-11  0.7689303E-10  0.6363034E-11
  0.4100000E+01  0.2129549E-08 -0.2473826E-09  0.4184164E+00  0.3956092E-01  0.2352597E-08 -0.6989467E-09  0.5064898E-01  0.3778351E-02  0.4403285E-10 -0.2700062E-10  0.7741330E-10  0.7514347E-11
  0.4200000E+01  0.3055902E-08 -0.1000444E-09  0.4216232E+00  0.4658094E-01 -0.8144309E-09  0.7094059E-10  0.5095812E-01  0.4451653E-02 -0.1406739E-09  0.6480150E-11  0.7794126E-10  0.8841703E-11
  0.4300000E+01 -0.1719156E-08  0.1682565E-09  0.4251755E+00  0.5462991E-01  0.4750523E-08 -0.6357368E-09  0.5126577E-01  0.5223538E-02  0.1708211E-09  0.2057732E-10  0.7858266E-10  0.1035561E-10
  0.4400000E+01 -0.5463582E-08  0.2937668E-09  0.4290311E+00  0.6382967E-01 -0.5306695E-08 -0.1539775E-08  0.5163135E-01  0.6107573E-02  0.4459624E-10  0.2091838E-10  0.7928597E-10  0.1209021E-10
  0.4500000E+01 -0.2483527E-08 -0.8276402E-10  0.4330155E+00  0.7430074E-01 -0.7354781E-09  0.1022272E-08  0.5202645E-01  0.7115384E-02  0.3225422E-09 -0.6366463E-11  0.8001808E-10  0.1405901E-10
  0.4600000E+01  0.1100884E-08 -0.2237357E-09  0.4366440E+00  0.8615562E-01  0.8620428E-09  0.7494236E-09  0.5238973E-01  0.8257170E-02  0.1765606E-09 -0.2432898E-10  0.8065631E-10  0.1627845E-10
  0.4700000E+01  0.5201536E-09  0.6129994E-09  0.4402067E+00  0.9954713E-01 -0.8692447E-09 -0.3910827E-09  0.5275346E-01  0.9548492E-02 -0.1779320E-09 -0.6241407E-10  0.8129378E-10  0.1878947E-10
  0.4800000E+01 -0.2728484E-09 -0.3128662E-09  0.4436540E+00  0.1146112E+00  0.1706060E-08 -0.1029548E-08  0.5312771E-01  0.1100354E-01 -0.3628505E-10  0.4297362E-10  0.8187021E-10  0.2160882E-10
  0.4900000E+01  0.2310488E-08  0.4001777E-10  0.4467855E+00  0.1314477E+00  0.6834203E-08  0.9331416E-09  0.5338824E-01  0.1262698E-01  0.1472825E-09  0.3410605E-11  0.8240695E-10  0.2475752E-10
  0.5000000E+01  0.2380693E-08 -0.8403731E-09  0.4501838E+00  0.1502792E+00 -0.9156793E-09 -0.1751687E-08  0.5371577E-01  0.1444696E-01 -0.1251919E-09  0.7116796E-10  0.8308375E-10  0.2828171E-10
Zone t="Motion of body    1 in DoF   5",I=    21,F=POINT
  0.3000000E+01 -0.3924489E+00 -0.4672068E-02  0.2745461E-08 -0.4149570E-11  0.7034154E-07  0.3967398E-07  0.1209817E-09 -0.6892265E-12  0.4809079E-01  0.4428437E-03 -0.6291264E-15  0.6505213E-18
  0.3100000E+01 -0.3936540E+00 -0.5851121E-02 -0.9200566E-09  0.3524292E-10  0.5785443E-07  0.5042602E-07  0.6107000E-10  0.5613288E-12  0.4825082E-01  0.5550279E-03 -0.2148819E-15  0.2168404E-17
  0.3200000E+01 -0.3948778E+00 -0.7271766E-02  0.2464731E-08  0.1034550E-10 -0.3744049E-07 -0.3421337E-07  0.2587708E-09 -0.5385914E-11  0.4833166E-01  0.6901086E-03 -0.4163336E-15 -0.1821460E-16
  0.3300000E+01 -0.3974100E+00 -0.8983959E-02 -0.6438120E-09 -0.9094947E-11  0.4595346E-07  0.6423579E-07 -0.1981386E-09  0.2472689E-11  0.4856330E-01  0.8531245E-03 -0.3700744E-15 -0.1257675E-16
  0.3400000E+01 -0.4003169E+00 -0.1103045E-01  0.9244746E-09 -0.3342393E-10  0.1527416E-07  0.2766683E-07  0.1795750E-09  0.4732215E-11  0.4885436E-01  0.1048245E-02  0.6530723E-16 -0.7806256E-17
  0.3500000E+01 -0.4028776E+00 -0.1345879E-01 -0.2486299E-08  0.2955858E-10 -0.1552076E-06 -0.1108237E-06 -0.3120724E-09 -0.1733724E-11  0.4910671E-01  0.1279827E-02  0.3806479E-15  0.7806256E-17
  0.3600000E+01 -0.4054880E+00 -0.1632573E-01 -0.5335702E-09 -0.8640200E-11 -0.3996694E-06 -0.3955211E-06 -0.2916778E-09  0.5684342E-13  0.4939936E-01  0.1553701E-02  0.9251859E-16 -0.6938894E-17
  0.3700000E+01 -0.4078678E+00 -0.1968675E-01  0.8888467E-09 -0.9413270E-10 -0.2067394E-06 -0.1825319E-06 -0.2547660E-09 -0.2160050E-11  0.4957952E-01  0.1874435E-02 -0.9001808E-16 -0.3556183E-16
  0.3800000E+01 -0.4104851E+00 -0.2361562E-01 -0.7735492E-09  0.4183676E-10 -0.2274981E-06 -0.2008310E-06 -0.4183975E-10 -0.1728040E-10  0.4982540E-01  0.2250122E-02  0.2921640E-15 -0.1908196E-16
  0.3900000E+01 -0.4130890E+00 -0.2818082E-01  0.2940233E-08 -0.6821210E-10 -0.8964353E-07 -0.1947774E-07 -0.3473279E-10 -0.7105427E-11  0.5009213E-01  0.2687438E-02 -0.1423363E-15 -0.5204170E-17
  0.4000000E+01 -0.4153686E+00 -0.3345696E-01 -0.4438334E-09  0.2064553E-09  0.2075467E-07  0.5762558E-07  0.1105889E-09 -0.3893774E-10  0.5033005E-01  0.3193107E-02  0.2775558E-16  0.3816392E-16
  0.4100000E+01 -0.4184169E+00 -0.3956098E-01  0.4784386E-08 -0.7821654E-10  0.7304352E-08  0.1565350E-06 -0.9967008E-10  0.4183676E-10  0.5064903E-01  0.3778358E-02 -0.3520219E-15 -0.5377643E-16
  0.4200000E+01 -0.4216242E+00 -0.4658106E-01  0.1600711E-08 -0.4911271E-10  0.5901495E-07  0.1144217E-06 -0.1739950E-09 -0.1097078E-10  0.5095813E-01  0.4451659E-02 -0.3436405E-15 -0.2775558E-16
  0.4300000E+01 -0.4251759E+00 -0.5463000E-01 -0.6159183E-09 -0.1546141E-10 -0.1199687E-06 -0.4703907E-06 -0.5168785E-10  0.9094947E-12  0.5126577E-01  0.5223542E-02 -0.6454785E-15  0.1040834E-16
  0.4400000E+01 -0.4290319E+00 -0.6382974E-01 -0.7871263E-09  0.4911271E-09 -0.1829771E-06 -0.7200433E-06 -0.1901154E-09 -0.1170974E-10  0.5163141E-01  0.6107581E-02 -0.3532528E-15 -0.2428613E-16
  0.4500000E+01 -0.4330157E+00 -0.7430074E-01  0.1610412E-08 -0.2064553E-09 -0.3947773E-06 -0.1387030E-05  0.3374730E-09 -0.3035439E-10  0.5202651E-01  0.7115380E-02  0.2467162E-16  0.3469447E-16
  0.4600000E+01 -0.4366443E+00 -0.8615564E-01 -0.2973652E-09  0.6475602E-09 -0.6408031E-06 -0.2078799E-05  0.1271068E-09  0.2364686E-10  0.5238976E-01  0.8257167E-02  0.2896234E-15  0.1457168E-15
  0.4700000E+01 -0.4402069E+00 -0.9954733E-01 -0.1981537E-09 -0.4401954E-09 -0.4528370E-06 -0.1739711E-05  0.3386417E-11  0.8856205E-10  0.5275358E-01  0.9548504E-02 -0.1086601E-14 -0.6938894E-16
  0.4800000E+01 -0.4436547E+00 -0.1146113E+00 -0.1212660E-09  0.7057679E-09 -0.1054226E-06 -0.7785275E-06  0.9805489E-10  0.9549694E-11  0.5312780E-01  0.1100354E-01  0.3006854E-15 -0.1734723E-15
  0.4900000E+01 -0.4467865E+00 -0.1314481E+00 -0.6474117E-09  0.7621566E-09  0.1247604E-06  0.4139147E-06  0.2088126E-09 -0.8185452E-11  0.5338830E-01  0.1262701E-01  0.2265761E-16  0.9714451E-16
  0.5000000E+01 -0.4501849E+00 -0.1502796E+00 -0.1618173E-08  0.8076313E-09  0.4922040E-07  0.6656337E-06 -0.2552042E-09  0.1568878E-10  0.5371599E-01  0.1444704E-01 -0.8881784E-15 -0.1179612E-15
Zone t="Motion of body    1 in DoF   6",I=    21,F=POINT
  0.3000000E+01  0.1387779E-14 -0.1079967E-18  0.7029892E-09  0.9608551E-11  0.2344768E-15  0.2435220E-19  0.7298834E-10  0.9108725E-12 -0.5190798E-15  0.4871763E-19  0.9982402E-13  0.9309016E-20
  0.3100000E+01  0.1206920E-13  0.7199780E-20  0.7059529E-09  0.1201943E-10  0.8058071E-16  0.5227252E-18  0.7328674E-10  0.1140150E-11 -0.4231886E-16  0.4936614E-20  0.9974447E-13  0.5542572E-19
  0.3200000E+01 -0.6470519E-14  0.2157816E-18  0.7085904E-09  0.1491569E-10  0.2274114E-15  0.6941435E-18  0.7348876E-10  0.1415321E-11 -0.9276705E-16 -0.4075023E-19  0.9976704E-13  0.8024924E-19
  0.3300000E+01 -0.5786617E-14  0.9529121E-20  0.7132501E-09  0.1840325E-10  0.1161739E-15 -0.3199667E-18  0.7395647E-10  0.1747610E-11 -0.1837690E-14 -0.5714825E-19  0.9976358E-13  0.9579263E-19
  0.3400000E+01  0.6220514E-14  0.5586182E-18  0.7181368E-09  0.2256139E-10 -0.2788313E-15 -0.5579830E-18  0.7446300E-10  0.2143950E-11 -0.1049603E-14  0.7432714E-19  0.9970402E-13  0.2291689E-18
  0.3500000E+01 -0.4060244E-14  0.1902436E-17  0.7230686E-09  0.2747712E-10 -0.3494229E-15  0.7663531E-18  0.7493946E-10  0.2612843E-11  0.1672769E-17 -0.2974939E-18  0.9969085E-13  0.3578135E-18
  0.3600000E+01  0.2929755E-15 -0.1454779E-18  0.7279376E-09  0.3327933E-10 -0.3083953E-16 -0.1260809E-17  0.7541003E-10  0.3166970E-11  0.7856250E-15 -0.3435777E-19  0.9973483E-13  0.3455845E-18
  0.3700000E+01 -0.3780760E-14  0.1730806E-17  0.7328234E-09  0.4007293E-10  0.8486080E-16  0.3290723E-18  0.7582412E-10  0.3815029E-11 -0.7646848E-15 -0.2369310E-18  0.9987412E-13  0.1724781E-18
  0.3800000E+01 -0.2775558E-14  0.1590834E-18  0.7375781E-09  0.4798966E-10 -0.5980231E-16  0.5921819E-18  0.7630273E-10  0.4572579E-11 -0.4090010E-15  0.1871413E-19  0.9986638E-13  0.2036436E-18
  0.3900000E+01 -0.3956949E-14 -0.2770433E-17  0.7423570E-09  0.5717966E-10  0.7005614E-16 -0.5526890E-18  0.7680732E-10  0.5453481E-11 -0.2775669E-14  0.2855295E-18  0.9978926E-13  0.5116477E-18
  0.4000000E+01 -0.8062995E-14 -0.6784734E-18  0.7467179E-09  0.6776413E-10  0.5941428E-16 -0.3351074E-17  0.7725349E-10  0.6467557E-11 -0.1048424E-15  0.6120342E-18  0.9976577E-13  0.8661069E-18
  0.4100000E+01  0.1611177E-14 -0.1985233E-17  0.7523343E-09  0.7997641E-10 -0.2115517E-15 -0.3037037E-17  0.7780473E-10  0.7637980E-11  0.2535447E-14  0.4388160E-18  0.9975484E-13  0.9068842E-18
  0.4200000E+01 -0.1638901E-14  0.7839290E-18  0.7584051E-09  0.9401115E-10  0.3262932E-16  0.5704343E-17  0.7836268E-10  0.8984557E-11 -0.7115464E-15  0.6714589E-18  0.9977726E-13  0.1314534E-17
  0.4300000E+01 -0.1213500E-14  0.2005351E-17  0.7652628E-09  0.1100522E-09 -0.1718586E-15  0.1207022E-18  0.7899451E-10  0.1052291E-10  0.2749839E-14  0.4207107E-18  0.9980552E-13  0.2732217E-17
  0.4400000E+01  0.1375163E-14  0.3698569E-17  0.7724292E-09  0.1283926E-09 -0.7609128E-16  0.1274785E-18  0.7970206E-10  0.1228547E-10  0.1565144E-14 -0.4718503E-18  0.9975332E-13  0.3912005E-17
  0.4500000E+01  0.3799430E-14 -0.9469286E-17  0.7793364E-09  0.1491616E-09 -0.7324388E-16  0.1142309E-16  0.8040208E-10  0.1428483E-10  0.4104067E-15 -0.1547953E-18  0.9980226E-13  0.3091861E-17
  0.4600000E+01 -0.7361262E-15  0.2239555E-16  0.7861666E-09  0.1726528E-09  0.1176595E-15  0.8963303E-17  0.8108149E-10  0.1654677E-10 -0.2719462E-15 -0.4299751E-18  0.9982758E-13  0.2930317E-17
  0.4700000E+01  0.1325181E-13  0.1968166E-16  0.7928512E-09  0.1991127E-09  0.3580174E-16  0.2794362E-17  0.8173898E-10  0.1909758E-10  0.1889280E-15 -0.3154033E-17  0.9989497E-13  0.1505179E-17
  0.4800000E+01 -0.4730012E-14  0.1260724E-16  0.7991232E-09  0.2287371E-09  0.2276824E-16 -0.1816039E-17  0.8235853E-10  0.2195943E-10 -0.1760021E-15 -0.8989137E-18  0.9987693E-13  0.2406881E-17
  0.4900000E+01 -0.3557245E-14 -0.5725943E-17  0.8051040E-09  0.2618081E-09 -0.7576139E-16 -0.3205173E-17  0.8288589E-10  0.2514819E-10 -0.6056043E-16 -0.7534782E-17  0.9986644E-13  0.5131094E-17
  0.5000000E+01 -0.8593126E-14  0.3815291E-16  0.8117415E-09  0.2987705E-09 -0.8187895E-16 -0.1717783E-17  0.8355194E-10  0.2872147E-10  0.1046125E-14 -0.3113693E-17  0.9989404E-13  0.8017743E-17
