VARIABLES="w (rad/s)"
"abs(F   1   1)" "angle(F   1   1)"
"abs(F   1   2)" "angle(F   1   2)"
"abs(F   1   3)" "angle(F   1   3)"
"abs(F   1   4)" "angle(F   1   4)"
"abs(F   1   5)" "angle(F   1   5)"
"abs(F   1   6)" "angle(F   1   6)"
Zone t="Diffraction force - beta =   0.000 deg",I=     1,F=POINT
  0.4100000E+01  0.8775441E+03 -0.1148791E+01  0.2477979E-04  0.1343211E+01  0.1022093E+05 -0.1776675E+01  0.5849083E-03  0.3908717E+00  0.3213994E+04  0.1935948E+01  0.5067523E-12  0.2069723E+01
