VARIABLES="w (rad/s)"
"abs(F   1   1)" "angle(F   1   1)"
"abs(F   1   2)" "angle(F   1   2)"
"abs(F   1   3)" "angle(F   1   3)"
"abs(F   1   4)" "angle(F   1   4)"
"abs(F   1   5)" "angle(F   1   5)"
"abs(F   1   6)" "angle(F   1   6)"
Zone t="Diffraction force - beta =   0.000 deg",I=     1,F=POINT
  0.4100000E+01  0.1011050E+04 -0.1207341E+01  0.4026572E-04  0.6526109E+00  0.1012133E+05 -0.1722507E+01  0.7189658E-03  0.3170644E+00  0.3228508E+04  0.1934230E+01  0.5130338E-12  0.1022657E+01
