VARIABLES="w (rad/s)"
"abs(F   1   1)" "angle(F   1   1)"
"abs(F   1   2)" "angle(F   1   2)"
"abs(F   1   3)" "angle(F   1   3)"
"abs(F   1   4)" "angle(F   1   4)"
"abs(F   1   5)" "angle(F   1   5)"
"abs(F   1   6)" "angle(F   1   6)"
Zone t="FKforce - beta =   0.000",I=     1,F=POINT
  0.4100000E+01  0.1444455E+03 -0.1570796E+01  0.2640203E-04  0.1178201E-01  0.5598055E+03 -0.4224882E-06  0.1423419E-03  0.9212470E-02  0.1553305E+02  0.1570796E+01  0.5098639E-12 -0.1393638E-01
