VARIABLES="w (rad/s)"
"A   1   1" "B   1   1"
"A   1   2" "B   1   2"
"A   1   3" "B   1   3"
"A   1   4" "B   1   4"
"A   1   5" "B   1   5"
"A   1   6" "B   1   6"
Zone t="Motion of body    1 in DoF   1",I=     1,F=POINT
  0.4100000E+01  0.1295804E+02  0.1700054E+02  0.1153080E-06  0.3257883E-06 -0.2195762E-02  0.3505886E-02  0.1194819E-06 -0.6519258E-06 -0.2592416E+02 -0.5427452E+02  0.7798640E-14  0.1665335E-14
Zone t="Motion of body    1 in DoF   2",I=     1,F=POINT
  0.4100000E+01  0.1513399E-07 -0.1416192E-06  0.1295787E+02  0.1700224E+02 -0.7933506E-05 -0.1280382E-04  0.2592471E+02  0.5428114E+02 -0.7132568E-07 -0.2663583E-06  0.8776650E-08  0.1080532E-07
Zone t="Motion of body    1 in DoF   3",I=     1,F=POINT
  0.4100000E+01  0.5061016E-03  0.2455434E-02  0.2982731E-05  0.5093205E-04  0.1539932E+03  0.3480876E+04 -0.1843383E-04 -0.1034793E-03  0.7517280E-02 -0.2453655E-01  0.3141119E-13  0.1483258E-12
Zone t="Motion of body    1 in DoF   4",I=     1,F=POINT
  0.4100000E+01 -0.7047386E-07  0.7072231E-06  0.2950027E+02  0.5855411E+02 -0.9520025E-04 -0.1766086E-03  0.1239341E+03  0.1869487E+03  0.1165289E-06  0.7972121E-06  0.1966801E-07  0.3709382E-07
Zone t="Motion of body    1 in DoF   5",I=     1,F=POINT
  0.4100000E+01 -0.2950095E+02 -0.5854371E+02  0.4112584E-06  0.4163012E-06  0.1231904E-01 -0.7534981E-02  0.6875887E-06  0.5215406E-07  0.1239333E+03  0.1869351E+03  0.7495359E-13 -0.3530509E-13
Zone t="Motion of body    1 in DoF   6",I=     1,F=POINT
  0.4100000E+01  0.2099862E-13 -0.5469800E-16  0.8468434E-08  0.9624920E-08  0.1408088E-14 -0.1206327E-13  0.1623266E-07  0.3075194E-07 -0.1215153E-14  0.1431147E-14  0.1030722E-12  0.6913106E-16
